# vtk DataFile Version 3.0
#This file was generated by the deal.II library on 2022/12/4 at 17:52:32
ASCII
DATASET UNSTRUCTURED_GRID

POINTS 2048 double
17 0 0
16.9278 1.47026 0
15 0 0
14.9362 1.29873 0
16.9278 1.47026 0
16.7118 2.92635 0
14.9362 1.29873 0
14.7454 2.58495 0
15 0 0
14.9362 1.29873 0
13 0 0
12.9446 1.1272 0
14.9362 1.29873 0
14.7454 2.58495 0
12.9446 1.1272 0
12.779 2.24354 0
16.7118 2.92635 0
16.3541 4.35427 0
14.7454 2.58495 0
14.4295 3.84627 0
16.3541 4.35427 0
15.8582 5.74025 0
14.4295 3.84627 0
13.9914 5.07056 0
14.7454 2.58495 0
14.4295 3.84627 0
12.779 2.24354 0
12.5048 3.33827 0
14.4295 3.84627 0
13.9914 5.07056 0
12.5048 3.33827 0
12.1246 4.40086 0
13 0 0
12.9446 1.1272 0
11 0 0
10.9531 0.955667 0
12.9446 1.1272 0
12.779 2.24354 0
10.9531 0.955667 0
10.8127 1.90213 0
11 0 0
10.9531 0.955667 0
9 0 0
8.96148 0.784137 0
10.9531 0.955667 0
10.8127 1.90213 0
8.96148 0.784137 0
8.84628 1.56072 0
12.779 2.24354 0
12.5048 3.33827 0
10.8127 1.90213 0
10.5802 2.83028 0
12.5048 3.33827 0
12.1246 4.40086 0
10.5802 2.83028 0
10.2578 3.73116 0
10.8127 1.90213 0
10.5802 2.83028 0
8.84628 1.56072 0
8.65552 2.32228 0
10.5802 2.83028 0
10.2578 3.73116 0
8.65552 2.32228 0
8.39104 3.06147 0
15.8582 5.74025 0
15.2288 7.07095 0
13.9914 5.07056 0
13.4355 6.24601 0
15.2288 7.07095 0
14.472 8.33355 0
13.4355 6.24601 0
12.767 7.36131 0
13.9914 5.07056 0
13.4355 6.24601 0
12.1246 4.40086 0
11.6421 5.42106 0
13.4355 6.24601 0
12.767 7.36131 0
11.6421 5.42106 0
11.0619 6.38906 0
14.472 8.33355 0
13.5952 9.5159 0
12.767 7.36131 0
11.9924 8.40571 0
13.5952 9.5159 0
12.6066 10.6066 0
11.9924 8.40571 0
11.1192 9.36916 0
12.767 7.36131 0
11.9924 8.40571 0
11.0619 6.38906 0
10.3896 7.29552 0
11.9924 8.40571 0
11.1192 9.36916 0
10.3896 7.29552 0
9.63173 8.13173 0
12.1246 4.40086 0
11.6421 5.42106 0
10.2578 3.73116 0
9.84873 4.59612 0
11.6421 5.42106 0
11.0619 6.38906 0
9.84873 4.59612 0
9.35683 5.41681 0
10.2578 3.73116 0
9.84873 4.59612 0
8.39104 3.06147 0
8.05537 3.77117 0
9.84873 4.59612 0
9.35683 5.41681 0
8.05537 3.77117 0
7.65176 4.44456 0
11.0619 6.38906 0
10.3896 7.29552 0
9.35683 5.41681 0
8.78685 6.18533 0
10.3896 7.29552 0
9.63173 8.13173 0
8.78685 6.18533 0
8.14429 6.89429 0
9.35683 5.41681 0
8.78685 6.18533 0
7.65176 4.44456 0
7.18408 5.07515 0
8.78685 6.18533 0
8.14429 6.89429 0
7.18408 5.07515 0
6.65685 5.65685 0
9 0 0
8.96148 0.784137 0
7 0 0
6.9699 0.612607 0
8.96148 0.784137 0
8.84628 1.56072 0
6.9699 0.612607 0
6.87991 1.21931 0
7 0 0
6.9699 0.612607 0
5 0 0
4.97833 0.441077 0
6.9699 0.612607 0
6.87991 1.21931 0
4.97833 0.441077 0
4.91353 0.877906 0
8.84628 1.56072 0
8.65552 2.32228 0
6.87991 1.21931 0
6.73088 1.81428 0
8.65552 2.32228 0
8.39104 3.06147 0
6.73088 1.81428 0
6.52425 2.39177 0
6.87991 1.21931 0
6.73088 1.81428 0
4.91353 0.877906 0
4.80623 1.30628 0
6.73088 1.81428 0
6.52425 2.39177 0
4.80623 1.30628 0
4.65746 1.72208 0
5 0 0
4.97833 0.441077 0
3 0 0
2.98676 0.269547 0
4.97833 0.441077 0
4.91353 0.877906 0
2.98676 0.269547 0
2.94716 0.536498 0
3 0 0
2.98676 0.269547 0
1 0 0
0.995185 0.0980171 0
2.98676 0.269547 0
2.94716 0.536498 0
0.995185 0.0980171 0
0.980785 0.19509 0
4.91353 0.877906 0
4.80623 1.30628 0
2.94716 0.536498 0
2.88159 0.798283 0
4.80623 1.30628 0
4.65746 1.72208 0
2.88159 0.798283 0
2.79067 1.05238 0
2.94716 0.536498 0
2.88159 0.798283 0
0.980785 0.19509 0
0.95694 0.290285 0
2.88159 0.798283 0
2.79067 1.05238 0
0.95694 0.290285 0
0.92388 0.382683 0
8.39104 3.06147 0
8.05537 3.77117 0
6.52425 2.39177 0
6.26201 2.94623 0
8.05537 3.77117 0
7.65176 4.44456 0
6.26201 2.94623 0
5.94669 3.47231 0
6.52425 2.39177 0
6.26201 2.94623 0
4.65746 1.72208 0
4.46865 2.12129 0
6.26201 2.94623 0
5.94669 3.47231 0
4.46865 2.12129 0
4.24161 2.50007 0
7.65176 4.44456 0
7.18408 5.07515 0
5.94669 3.47231 0
5.58132 3.96496 0
7.18408 5.07515 0
6.65685 5.65685 0
5.58132 3.96496 0
5.16942 4.41942 0
5.94669 3.47231 0
5.58132 3.96496 0
4.24161 2.50007 0
3.97855 2.85477 0
5.58132 3.96496 0
5.16942 4.41942 0
3.97855 2.85477 0
3.68198 3.18198 0
4.65746 1.72208 0
4.46865 2.12129 0
2.79067 1.05238 0
2.67528 1.29634 0
4.46865 2.12129 0
4.24161 2.50007 0
2.67528 1.29634 0
2.53654 1.52782 0
2.79067 1.05238 0
2.67528 1.29634 0
0.92388 0.382683 0
0.881921 0.471397 0
2.67528 1.29634 0
2.53654 1.52782 0
0.881921 0.471397 0
0.83147 0.55557 0
4.24161 2.50007 0
3.97855 2.85477 0
2.53654 1.52782 0
2.37578 1.74458 0
3.97855 2.85477 0
3.68198 3.18198 0
2.37578 1.74458 0
2.19454 1.94454 0
2.53654 1.52782 0
2.37578 1.74458 0
0.83147 0.55557 0
0.77301 0.634393 0
2.37578 1.74458 0
2.19454 1.94454 0
0.77301 0.634393 0
0.707107 0.707107 0
12.6066 10.6066 0
11.5159 11.5952 0
11.1192 9.36916 0
10.1557 10.2424 0
11.5159 11.5952 0
10.3336 12.472 0
10.1557 10.2424 0
9.11131 11.017 0
11.1192 9.36916 0
10.1557 10.2424 0
9.63173 8.13173 0
8.79552 8.88962 0
10.1557 10.2424 0
9.11131 11.017 0
8.79552 8.88962 0
7.88906 9.5619 0
10.3336 12.472 0
9.07095 13.2288 0
9.11131 11.017 0
7.99601 11.6855 0
9.07095 13.2288 0
7.74025 13.8582 0
7.99601 11.6855 0
6.82056 12.2414 0
9.11131 11.017 0
7.99601 11.6855 0
7.88906 9.5619 0
6.92106 10.1421 0
7.99601 11.6855 0
6.82056 12.2414 0
6.92106 10.1421 0
5.90086 10.6246 0
9.63173 8.13173 0
8.79552 8.88962 0
8.14429 6.89429 0
7.43533 7.53685 0
8.79552 8.88962 0
7.88906 9.5619 0
7.43533 7.53685 0
6.66681 8.10683 0
8.14429 6.89429 0
7.43533 7.53685 0
6.65685 5.65685 0
6.07515 6.18408 0
7.43533 7.53685 0
6.66681 8.10683 0
6.07515 6.18408 0
5.44456 6.65176 0
7.88906 9.5619 0
6.92106 10.1421 0
6.66681 8.10683 0
5.84612 8.59873 0
6.92106 10.1421 0
5.90086 10.6246 0
5.84612 8.59873 0
4.98116 9.00783 0
6.66681 8.10683 0
5.84612 8.59873 0
5.44456 6.65176 0
4.77117 7.05537 0
5.84612 8.59873 0
4.98116 9.00783 0
4.77117 7.05537 0
4.06147 7.39104 0
7.74025 13.8582 0
6.35427 14.3541 0
6.82056 12.2414 0
5.59627 12.6795 0
6.35427 14.3541 0
4.92635 14.7118 0
5.59627 12.6795 0
4.33495 12.9954 0
6.82056 12.2414 0
5.59627 12.6795 0
5.90086 10.6246 0
4.83827 11.0048 0
5.59627 12.6795 0
4.33495 12.9954 0
4.83827 11.0048 0
3.74354 11.279 0
4.92635 14.7118 0
3.47026 14.9278 0
4.33495 12.9954 0
3.04873 13.1862 0
3.47026 14.9278 0
2 15 0
3.04873 13.1862 0
1.75 13.25 0
4.33495 12.9954 0
3.04873 13.1862 0
3.74354 11.279 0
2.6272 11.4446 0
3.04873 13.1862 0
1.75 13.25 0
2.6272 11.4446 0
1.5 11.5 0
5.90086 10.6246 0
4.83827 11.0048 0
4.98116 9.00783 0
4.08028 9.33017 0
4.83827 11.0048 0
3.74354 11.279 0
4.08028 9.33017 0
3.15213 9.56266 0
4.98116 9.00783 0
4.08028 9.33017 0
4.06147 7.39104 0
3.32228 7.65552 0
4.08028 9.33017 0
3.15213 9.56266 0
3.32228 7.65552 0
2.56072 7.84628 0
3.74354 11.279 0
2.6272 11.4446 0
3.15213 9.56266 0
2.20567 9.70305 0
2.6272 11.4446 0
1.5 11.5 0
2.20567 9.70305 0
1.25 9.75 0
3.15213 9.56266 0
2.20567 9.70305 0
2.56072 7.84628 0
1.78414 7.96148 0
2.20567 9.70305 0
1.25 9.75 0
1.78414 7.96148 0
1 8 0
6.65685 5.65685 0
6.07515 6.18408 0
5.16942 4.41942 0
4.71496 4.83132 0
6.07515 6.18408 0
5.44456 6.65176 0
4.71496 4.83132 0
4.22231 5.19669 0
5.16942 4.41942 0
4.71496 4.83132 0
3.68198 3.18198 0
3.35477 3.47855 0
4.71496 4.83132 0
4.22231 5.19669 0
3.35477 3.47855 0
3.00007 3.74161 0
5.44456 6.65176 0
4.77117 7.05537 0
4.22231 5.19669 0
3.69623 5.51201 0
4.77117 7.05537 0
4.06147 7.39104 0
3.69623 5.51201 0
3.14177 5.77425 0
4.22231 5.19669 0
3.69623 5.51201 0
3.00007 3.74161 0
2.62129 3.96865 0
3.69623 5.51201 0
3.14177 5.77425 0
2.62129 3.96865 0
2.22208 4.15746 0
3.68198 3.18198 0
3.35477 3.47855 0
2.19454 1.94454 0
1.99458 2.12578 0
3.35477 3.47855 0
3.00007 3.74161 0
1.99458 2.12578 0
1.77782 2.28654 0
2.19454 1.94454 0
1.99458 2.12578 0
0.707107 0.707107 0
0.634393 0.77301 0
1.99458 2.12578 0
1.77782 2.28654 0
0.634393 0.77301 0
0.55557 0.83147 0
3.00007 3.74161 0
2.62129 3.96865 0
1.77782 2.28654 0
1.54634 2.42528 0
2.62129 3.96865 0
2.22208 4.15746 0
1.54634 2.42528 0
1.30238 2.54067 0
1.77782 2.28654 0
1.54634 2.42528 0
0.55557 0.83147 0
0.471397 0.881921 0
1.54634 2.42528 0
1.30238 2.54067 0
0.471397 0.881921 0
0.382683 0.92388 0
4.06147 7.39104 0
3.32228 7.65552 0
3.14177 5.77425 0
2.56428 5.98088 0
3.32228 7.65552 0
2.56072 7.84628 0
2.56428 5.98088 0
1.96931 6.12991 0
3.14177 5.77425 0
2.56428 5.98088 0
2.22208 4.15746 0
1.80628 4.30623 0
2.56428 5.98088 0
1.96931 6.12991 0
1.80628 4.30623 0
1.37791 4.41353 0
2.56072 7.84628 0
1.78414 7.96148 0
1.96931 6.12991 0
1.36261 6.2199 0
1.78414 7.96148 0
1 8 0
1.36261 6.2199 0
0.75 6.25 0
1.96931 6.12991 0
1.36261 6.2199 0
1.37791 4.41353 0
0.941077 4.47833 0
1.36261 6.2199 0
0.75 6.25 0
0.941077 4.47833 0
0.5 4.5 0
2.22208 4.15746 0
1.80628 4.30623 0
1.30238 2.54067 0
1.04828 2.63159 0
1.80628 4.30623 0
1.37791 4.41353 0
1.04828 2.63159 0
0.786498 2.69716 0
1.30238 2.54067 0
1.04828 2.63159 0
0.382683 0.92388 0
0.290285 0.95694 0
1.04828 2.63159 0
0.786498 2.69716 0
0.290285 0.95694 0
0.19509 0.980785 0
1.37791 4.41353 0
0.941077 4.47833 0
0.786498 2.69716 0
0.519547 2.73676 0
0.941077 4.47833 0
0.5 4.5 0
0.519547 2.73676 0
0.25 2.75 0
0.786498 2.69716 0
0.519547 2.73676 0
0.19509 0.980785 0
0.0980171 0.995185 0
0.519547 2.73676 0
0.25 2.75 0
0.0980171 0.995185 0
0 1 0
2 15 0
0.529743 14.9278 0
1.75 13.25 0
0.451273 13.1862 0
0.529743 14.9278 0
-0.926355 14.7118 0
0.451273 13.1862 0
-0.834947 12.9954 0
1.75 13.25 0
0.451273 13.1862 0
1.5 11.5 0
0.372803 11.4446 0
0.451273 13.1862 0
-0.834947 12.9954 0
0.372803 11.4446 0
-0.743539 11.279 0
-0.926355 14.7118 0
-2.35427 14.3541 0
-0.834947 12.9954 0
-2.09627 12.6795 0
-2.35427 14.3541 0
-3.74025 13.8582 0
-2.09627 12.6795 0
-3.32056 12.2414 0
-0.834947 12.9954 0
-2.09627 12.6795 0
-0.743539 11.279 0
-1.83827 11.0048 0
-2.09627 12.6795 0
-3.32056 12.2414 0
-1.83827 11.0048 0
-2.90086 10.6246 0
1.5 11.5 0
0.372803 11.4446 0
1.25 9.75 0
0.294333 9.70305 0
0.372803 11.4446 0
-0.743539 11.279 0
0.294333 9.70305 0
-0.652131 9.56266 0
1.25 9.75 0
0.294333 9.70305 0
1 8 0
0.215863 7.96148 0
0.294333 9.70305 0
-0.652131 9.56266 0
0.215863 7.96148 0
-0.560723 7.84628 0
-0.743539 11.279 0
-1.83827 11.0048 0
[...]
POINT_DATA 2048
SCALARS solution double 1
LOOKUP_TABLE default
38221 38191.8 37731.7 37702.4 38191.8 38104.6 37702.4 37614.6 37731.7 37702.4 36332.8 36304.7 37702.4 37614.6 36304.7 36220.6 38104.6 37959.8 37614.6 37469.2 37959.8 37758.5 37469.2 37267.1 37614.6 37469.2 36220.6 36081.3 37469.2 37267.1 36081.3 35887.8 36332.8 36304.7 34113.4 34087.5 36304.7 36220.6 34087.5 34010.2 34113.4 34087.5 31091 31068.2 34087.5 34010.2 31068.2 31000 36220.6 36081.3 34010.2 33882.1 36081.3 35887.8 33882.1 33704.2 34010.2 33882.1 31000 30886.9 33882.1 33704.2 30886.9 30729.8 37758.5 37502.3 37267.1 37010 37502.3 37192.8 37010 36699.8 37267.1 37010 35887.8 35641.6 37010 36699.8 35641.6 35344.9 37192.8 36832.3 36699.8 36339.1 36832.3 36423.5 36339.1 35930.5 36699.8 36339.1 35344.9 34999.9 36339.1 35930.5 34999.9 34609.5 35887.8 35641.6 33704.2 33478 35641.6 35344.9 33478 33205.3 33704.2 33478 30729.8 30530.1 33478 33205.3 30530.1 30289.4 35344.9 34999.9 33205.3 32888.4 34999.9 34609.5 32888.4 32529.9 33205.3 32888.4 30289.4 30009.7 32888.4 32529.9 30009.7 29693.2 31091 31068.2 27164.8 27145.6 31068.2 31000 27145.6 27088.1 27164.8 27145.6 21987.1 21971.9 27145.6 27088.1 21971.9 21926.6 31000 30886.9 27088.1 26992.8 30886.9 30729.8 26992.8 26860.5 27088.1 26992.8 21926.6 21851.4 26992.8 26860.5 21851.4 21747 21987.1 21971.9 14510.4 14500 21971.9 21926.6 14500 14468.8 14510.4 14500 1 0.995185 14500 14468.8 0.995185 0.980785 21926.6 21851.4 14468.8 14417.2 21851.4 21747 14417.2 14345.7 14468.8 14417.2 0.980785 0.95694 14417.2 14345.7 0.95694 0.92388 30729.8 30530.1 26860.5 26692.1 30530.1 30289.4 26692.1 26489.2 26860.5 26692.1 21747 21614.3 26692.1 26489.2 21614.3 21454.2 30289.4 30009.7 26489.2 26253.4 30009.7 29693.2 26253.4 25986.6 26489.2 26253.4 21454.2 21268.2 26253.4 25986.6 21268.2 21057.7 21747 21614.3 14345.7 14254.7 21614.3 21454.2 14254.7 14145.2 14345.7 14254.7 0.92388 0.881921 14254.7 14145.2 0.881921 0.83147 21454.2 21268.2 14145.2 14018.1 21268.2 21057.7 14018.1 13874.5 14145.2 14018.1 0.83147 0.77301 14018.1 13874.5 0.77301 0.707107 36423.5 35969.4 35930.5 35477.3 35969.4 35473.4 35477.3 34983.2 35930.5 35477.3 34609.5 34176.9 35477.3 34983.2 34176.9 33705.7 35473.4 34939.2 34983.2 34452.1 34939.2 34371 34452.1 33888.3 34983.2 34452.1 33705.7 33199.7 34452.1 33888.3 33199.7 32663.1 34609.5 34176.9 32529.9 32132.8 34176.9 33705.7 32132.8 31700.4 32529.9 32132.8 29693.2 29342.7 32132.8 31700.4 29342.7 28961 33705.7 33199.7 31700.4 31236.3 33199.7 32663.1 31236.3 30744.4 31700.4 31236.3 28961 28551.4 31236.3 30744.4 28551.4 28117.4 34371 33773.3 33888.3 33296.5 33773.3 33150.9 33296.5 32681.6 33888.3 33296.5 32663.1 32100.6 33296.5 32681.6 32100.6 31516.9 33150.9 32508.9 32681.6 32049 32508.9 31853 32049 31404.1 32681.6 32049 31516.9 30917.1 32049 31404.1 30917.1 30306.5 32663.1 32100.6 30744.4 30229.1 32100.6 31516.9 30229.1 29694.6 30744.4 30229.1 28117.4 27662.6 30229.1 29694.6 27662.6 27191.1 31516.9 30917.1 29694.6 29145.8 30917.1 30306.5 29145.8 28587.5 29694.6 29145.8 27191.1 26707 29145.8 28587.5 26707 26214.7 29693.2 29342.7 25986.6 25691 29342.7 28961 25691 25369.1 25986.6 25691 21057.7 20824.5 25691 25369.1 20824.5 20570.6 28961 28551.4 25369.1 25023.6 28551.4 28117.4 25023.6 24657.5 25369.1 25023.6 20570.6 20298 25023.6 24657.5 20298 20009.1 21057.7 20824.5 13874.5 13715.7 20824.5 20570.6 13715.7 13543.1 13874.5 13715.7 0.707107 0.634393 13715.7 13543.1 0.634393 0.55557 20570.6 20298 13543.1 13358.3 20298 20009.1 13358.3 13162.9 13543.1 13358.3 0.55557 0.471397 13358.3 13162.9 0.471397 0.382683 28117.4 27662.6 24657.5 24273.8 27662.6 27191.1 24273.8 23875.9 24657.5 24273.8 20009.1 19706.5 24273.8 23875.9 19706.5 19392.7 27191.1 26707 23875.9 23467.5 26707 26214.7 23467.5 23052.1 23875.9 23467.5 19392.7 19070.6 23467.5 23052.1 19070.6 18743.1 20009.1 19706.5 13162.9 12958.8 19706.5 19392.7 12958.8 12747.8 13162.9 12958.8 0.382683 0.290285 12958.8 12747.8 0.290285 0.19509 19392.7 19070.6 12747.8 12531.8 19070.6 18743.1 12531.8 12312.9 12747.8 12531.8 0.19509 0.0980171 12531.8 12312.9 0.0980171 0 31853 31188.8 31404.1 30752.8 31188.8 30522.5 30752.8 30101 31404.1 30752.8 30306.5 29690.8 30752.8 30101 29690.8 29075.5 30522.5 29860.4 30101 29455 29860.4 29209.2 29455 28821.1 30101 29455 29075.5 28466.6 29455 28821.1 28466.6 27870 30306.5 29690.8 28587.5 28024.8 29690.8 29075.5 28024.8 27463.1 28587.5 28024.8 26214.7 25718.6 28024.8 27463.1 25718.6 25223.5 29075.5 28466.6 27463.1 26907.5 28466.6 27870 26907.5 26363.7 27463.1 26907.5 25223.5 24734 26907.5 26363.7 24734 24255 29209.2 28575.5 28821.1 28205.9 28575.5 27966.1 28205.9 27615.7 28821.1 28205.9 27870 27291.7 28205.9 27615.7 27291.7 26737.9 27966.1 27388.1 27615.7 27057.1 27388.1 26848.1 27057.1 26536.5 27615.7 27057.1 26737.9 26214.5 27057.1 26536.5 26214.5 25727.3 27870 27291.7 26363.7 25837 27291.7 26737.9 25837 25333 26363.7 25837 24255 23791.3 25837 25333 23791.3 23347.7 26737.9 26214.5 25333 24857.1 26214.5 25727.3 24857.1 24414.4 25333 24857.1 23347.7 22929 24857.1 24414.4 22929 22539.8 26214.7 25718.6 23052.1 22633.5 25718.6 25223.5 22633.5 22215.8 23052.1 22633.5 18743.1 18413.3 22633.5 22215.8 18413.3 18084.2 25223.5 24734 22215.8 21802.8 24734 24255 21802.8 21398.8 22215.8 21802.8 18084.2 17759.1 21802.8 21398.8 17759.1 17441.2 18743.1 18413.3 12312.9 12093.1 18413.3 18084.2 12093.1 11874.6 12312.9 12093.1 0 -0.0980171 12093.1 11874.6 -0.0980171 -0.19509 18084.2 17759.1 11874.6 11659.4 17759.1 17441.2 11659.4 11449.6 11874.6 11659.4 -0.19509 -0.290285 11659.4 11449.6 -0.290285 -0.382683 24255 23791.3 21398.8 21007.8 23791.3 23347.7 21007.8 20633.8 21398.8 21007.8 17441.2 17133.7 21007.8 20633.8 17133.7 16839.8 23347.7 22929 20633.8 20280.8 22929 22539.8 20280.8 19952.8 20633.8 20280.8 16839.8 16562.6 20280.8 19952.8 16562.6 16305.2 17441.2 17133.7 11449.6 11247.4 17133.7 16839.8 11247.4 11054.8 11449.6 11247.4 -0.382683 -0.471397 11247.4 11054.8 -0.471397 -0.55557 16839.8 16562.6 11054.8 10873.7 16562.6 16305.2 10873.7 10706 11054.8 10873.7 -0.55557 -0.634393 10873.7 10706 -0.634393 -0.707107 26848.1 26352.9 26536.5 26060 26352.9 25908.8 26060 25633.5 26536.5 26060 25727.3 25282 26060 25633.5 25282 24883.9 25908.8 25521.7 25633.5 25262.4 25521.7 25197.1 25262.4 24951.6 25633.5 25262.4 24883.9 24537.9 25262.4 24951.6 24537.9 24248.3 25727.3 25282 24414.4 24010.1 25282 24883.9 24010.1 23648.9 24414.4 24010.1 22539.8 22184.4 24010.1 23648.9 22184.4 21867 24883.9 24537.9 23648.9 23335.2 24537.9 24248.3 23335.2 23072.8 23648.9 23335.2 21867 21591.4 23335.2 23072.8 21591.4 21361 25197.1 24939.4 24951.6 24705.3 24939.4 24752.6 24705.3 24526.8 24951.6 24705.3 24248.3 24019 24705.3 24526.8 24019 23853 24752.6 24639.4 24526.8 24418.7 24639.4 24601.4 24418.7 24382.4 24526.8 24418.7 23853 23752.4 24418.7 24382.4 23752.4 23718.8 24248.3 24019 23072.8 22865.1 24019 23853 22865.1 22714.7 23072.8 22865.1 21361 21178.7 22865.1 22714.7 21178.7 21046.7 23853 23752.4 22714.7 22623.7 23752.4 23718.8 22623.7 22593.2 22714.7 22623.7 21046.7 20966.8 22623.7 22593.2 20966.8 20940.1 22539.8 22184.4 19952.8 19653.4 22184.4 21867 19653.4 19386.1 19952.8 19653.4 16305.2 16070.4 19653.4 19386.1 16070.4 15860.9 21867 21591.4 19386.1 19154.1 21591.4 21361 19154.1 18960.1 19386.1 19154.1 15860.9 15679.1 19154.1 18960.1 15679.1 15527.3 16305.2 16070.4 10706 10553.5 16070.4 15860.9 10553.5 10417.7 10706 10553.5 -0.707107 -0.77301 10553.5 10417.7 -0.77301 -0.83147 15860.9 15679.1 10417.7 10300.3 15679.1 15527.3 10300.3 10202.3 10417.7 10300.3 -0.83147 -0.881921 10300.3 10202.3 -0.881921 -0.92388 21361 21178.7 18960.1 18806.7 21178.7 21046.7 18806.7 18695.6 18960.1 18806.7 15527.3 15407.2 18806.7 18695.6 15407.2 15320.4 21046.7 20966.8 18695.6 18628.4 20966.8 20940.1 18628.4 18605.9 18695.6 18628.4 15320.4 15267.8 18628.4 18605.9 15267.8 15250.2 15527.3 15407.2 10202.3 10125 15407.2 15320.4 10125 10069.1 10202.3 10125 -0.92388 -0.95694 10125 10069.1 -0.95694 -0.980785 15320.4 15267.8 10069.1 10035.3 15267.8 15250.2 10035.3 10024 10069.1 10035.3 -0.980785 -0.995185 10035.3 10024 -0.995185 -1 24601.4 24639.4 24382.4 24418.7 24639.4 24752.6 24418.7 24526.8 24382.4 24418.7 23718.8 23752.4 24418.7 24526.8 23752.4 23853 24752.6 24939.4 24526.8 24705.3 24939.4 25197.1 24705.3 24951.6 24526.8 24705.3 23853 24019 24705.3 24951.6 24019 24248.3 23718.8 23752.4 22593.2 22623.7 23752.4 23853 22623.7 22714.7 22593.2 22623.7 20940.1 20966.8 22623.7 22714.7 20966.8 21046.7 23853 24019 22714.7 22865.1 24019 24248.3 22865.1 23072.8 22714.7 22865.1 21046.7 21178.7 22865.1 23072.8 21178.7 21361 25197.1 25521.7 24951.6 25262.4 25521.7 25908.8 25262.4 25633.5 24951.6 25262.4 24248.3 24537.9 25262.4 25633.5 24537.9 24883.9 25908.8 26352.9 25633.5 26060 26352.9 26848.1 26060 26536.5 25633.5 26060 24883.9 25282 26060 26536.5 25282 25727.3 24248.3 24537.9 23072.8 23335.2 24537.9 24883.9 23335.2 23648.9 23072.8 23335.2 21361 21591.4 23335.2 23648.9 21591.4 21867 24883.9 25282 23648.9 24010.1 25282 25727.3 24010.1 24414.4 23648.9 24010.1 21867 22184.4 24010.1 24414.4 22184.4 22539.8 20940.1 20966.8 18605.9 18628.4 20966.8 21046.7 18628.4 18695.6 18605.9 18628.4 15250.2 15267.8 18628.4 18695.6 15267.8 15320.4 21046.7 21178.7 18695.6 18806.7 21178.7 21361 18806.7 18960.1 18695.6 18806.7 15320.4 15407.2 18806.7 18960.1 15407.2 15527.3 15250.2 15267.8 10024 10035.3 15267.8 15320.4 10035.3 10069.1 10024 10035.3 -1 -0.995185 10035.3 10069.1 -0.995185 -0.980785 15320.4 15407.2 10069.1 10125 15407.2 15527.3 10125 10202.3 10069.1 10125 -0.980785 -0.95694 10125 10202.3 -0.95694 -0.92388 21361 21591.4 18960.1 19154.1 21591.4 21867 19154.1 19386.1 18960.1 19154.1 15527.3 15679.1 19154.1 19386.1 15679.1 15860.9 21867 22184.4 19386.1 19653.4 22184.4 22539.8 19653.4 19952.8 19386.1 19653.4 15860.9 16070.4 19653.4 19952.8 16070.4 16305.2 15527.3 15679.1 10202.3 10300.3 15679.1 15860.9 10300.3 10417.7 10202.3 10300.3 -0.92388 -0.881921 10300.3 10417.7 -0.881921 -0.83147 15860.9 16070.4 10417.7 10553.5 16070.4 16305.2 10553.5 10706 10417.7 10553.5 -0.83147 -0.77301 10553.5 10706 -0.77301 -0.707107 26848.1 27388.1 26536.5 27057.1 27388.1 27966.1 27057.1 27615.7 26536.5 27057.1 25727.3 26214.5 27057.1 27615.7 26214.5 26737.9 27966.1 28575.5 27615.7 28205.9 28575.5 29209.2 28205.9 28821.1 27615.7 28205.9 26737.9 27291.7 28205.9 28821.1 27291.7 27870 25727.3 26214.5 24414.4 24857.1 26214.5 26737.9 24857.1 25333 24414.4 24857.1 22539.8 22929 24857.1 25333 22929 23347.7 26737.9 27291.7 25333 25837 27291.7 27870 25837 26363.7 25333 25837 23347.7 23791.3 25837 26363.7 23791.3 24255 29209.2 29860.4 28821.1 29455 29860.4 30522.5 29455 30101 28821.1 29455 27870 28466.6 29455 30101 28466.6 29075.5 30522.5 31188.8 30101 30752.8 31188.8 31853 30752.8 31404.1 30101 30752.8 29075.5 29690.8 30752.8 31404.1 29690.8 30306.5 27870 28466.6 26363.7 26907.5 28466.6 29075.5 26907.5 27463.1 26363.7 26907.5 24255 24734 26907.5 27463.1 24734 25223.5 29075.5 29690.8 27463.1 28024.8 29690.8 30306.5 28024.8 28587.5 27463.1 28024.8 25223.5 25718.6 28024.8 28587.5 25718.6 26214.7 22539.8 22929 19952.8 20280.8 22929 23347.7 20280.8 20633.8 19952.8 20280.8 16305.2 16562.6 20280.8 20633.8 16562.6 16839.8 23347.7 23791.3 20633.8 21007.8 23791.3 24255 21007.8 21398.8 20633.8 21007.8 16839.8 17133.7 21007.8 21398.8 17133.7 17441.2 16305.2 16562.6 10706 10873.7 16562.6 16839.8 10873.7 11054.8 10706 10873.7 -0.707107 -0.634393 10873.7 11054.8 -0.634393 -0.55557 16839.8 17133.7 11054.8 11247.4 17133.7 17441.2 11247.4 11449.6 11054.8 11247.4 -0.55557 -0.471397 11247.4 11449.6 -0.471397 -0.382683 24255 24734 21398.8 21802.8 24734 25223.5 21802.8 22215.8 21398.8 21802.8 17441.2 17759.1 21802.8 22215.8 17759.1 18084.2 25223.5 25718.6 22215.8 22633.5 25718.6 26214.7 22633.5 23052.1 22215.8 22633.5 18084.2 18413.3 22633.5 23052.1 18413.3 18743.1 17441.2 17759.1 11449.6 11659.4 17759.1 18084.2 11659.4 11874.6 11449.6 11659.4 -0.382683 -0.290285 11659.4 11874.6 -0.290285 -0.19509 18084.2 18413.3 11874.6 12093.1 18413.3 18743.1 12093.1 12312.9 11874.6 12093.1 -0.19509 -0.0980171 12093.1 12312.9 -0.0980171 -2.22045e-16 31853 32508.9 31404.1 32049 32508.9 33150.9 32049 32681.6 31404.1 32049 30306.5 30917.1 32049 32681.6 30917.1 31516.9 33150.9 33773.3 32681.6 33296.5 33773.3 34371 33296.5 33888.3 32681.6 33296.5 31516.9 32100.6 33296.5 33888.3 32100.6 32663.1 30306.5 30917.1 28587.5 29145.8 30917.1 31516.9 29145.8 29694.6 28587.5 29145.8 26214.7 26707 29145.8 29694.6 26707 27191.1 31516.9 32100.6 29694.6 30229.1 32100.6 32663.1 30229.1 30744.4 29694.6 30229.1 27191.1 27662.6 30229.1 30744.4 27662.6 28117.4 34371 34939.2 33888.3 34452.1 34939.2 35473.4 34452.1 34983.2 33888.3 34452.1 32663.1 33199.7 34452.1 34983.2 33199.7 33705.7 35473.4 35969.4 34983.2 35477.3 35969.4 36423.5 35477.3 35930.5 34983.2 35477.3 33705.7 34176.9 35477.3 35930.5 34176.9 34609.5 32663.1 33199.7 30744.4 31236.3 33199.7 33705.7 31236.3 31700.4 30744.4 31236.3 28117.4 28551.4 31236.3 31700.4 28551.4 28961 33705.7 34176.9 31700.4 32132.8 34176.9 34609.5 32132.8 32529.9 31700.4 32132.8 28961 29342.7 32132.8 32529.9 29342.7 29693.2 26214.7 26707 23052.1 23467.5 26707 27191.1 23467.5 23875.9 23052.1 23467.5 18743.1 19070.6 23467.5 23875.9 19070.6 19392.7 27191.1 27662.6 23875.9 24273.8 27662.6 28117.4 24273.8 24657.5 23875.9 24273.8 19392.7 19706.5 24273.8 24657.5 19706.5 20009.1 18743.1 19070.6 12312.9 12531.8 19070.6 19392.7 12531.8 12747.8 12312.9 12531.8 -2.22045e-16 0.0980171 12531.8 12747.8 0.0980171 0.19509 19392.7 19706.5 12747.8 12958.8 19706.5 20009.1 12958.8 13162.9 12747.8 12958.8 0.19509 0.290285 12958.8 13162.9 0.290285 0.382683 28117.4 28551.4 24657.5 25023.6 28551.4 28961 25023.6 25369.1 24657.5 25023.6 20009.1 20298 25023.6 25369.1 20298 20570.6 28961 29342.7 25369.1 25691 29342.7 29693.2 25691 25986.6 25369.1 25691 20570.6 20824.5 25691 25986.6 20824.5 21057.7 20009.1 20298 13162.9 13358.3 20298 20570.6 13358.3 13543.1 13162.9 13358.3 0.382683 0.471397 13358.3 13543.1 0.471397 0.55557 20570.6 20824.5 13543.1 13715.7 20824.5 21057.7 13715.7 13874.5 13543.1 13715.7 0.55557 0.634393 13715.7 13874.5 0.634393 0.707107 36423.5 36832.3 35930.5 36339.1 36832.3 37192.8 36339.1 36699.8 35930.5 36339.1 34609.5 34999.9 36339.1 36699.8 34999.9 35344.9 37192.8 37502.3 36699.8 37010 37502.3 37758.5 37010 37267.1 36699.8 37010 35344.9 35641.6 37010 37267.1 35641.6 35887.8 34609.5 34999.9 32529.9 32888.4 34999.9 35344.9 32888.4 33205.3 32529.9 32888.4 29693.2 30009.7 32888.4 33205.3 30009.7 30289.4 35344.9 35641.6 33205.3 33478 35641.6 35887.8 33478 33704.2 33205.3 33478 30289.4 30530.1 33478 33704.2 30530.1 30729.8 37758.5 37959.8 37267.1 37469.2 37959.8 38104.6 37469.2 37614.6 37267.1 37469.2 35887.8 36081.3 37469.2 37614.6 36081.3 36220.6 38104.6 38191.8 37614.6 37702.4 38191.8 38221 37702.4 37731.7 37614.6 37702.4 36220.6 36304.7 37702.4 37731.7 36304.7 36332.8 35887.8 36081.3 33704.2 33882.1 36081.3 36220.6 33882.1 34010.2 33704.2 33882.1 30729.8 30886.9 33882.1 34010.2 30886.9 31000 36220.6 36304.7 34010.2 34087.5 36304.7 36332.8 34087.5 34113.4 34010.2 34087.5 31000 31068.2 34087.5 34113.4 31068.2 31091 29693.2 30009.7 25986.6 26253.4 30009.7 30289.4 26253.4 26489.2 25986.6 26253.4 21057.7 21268.2 26253.4 26489.2 21268.2 21454.2 30289.4 30530.1 26489.2 26692.1 30530.1 30729.8 26692.1 26860.5 26489.2 26692.1 21454.2 21614.3 26692.1 26860.5 21614.3 21747 21057.7 21268.2 13874.5 14018.1 21268.2 21454.2 14018.1 14145.2 13874.5 14018.1 0.707107 0.77301 14018.1 14145.2 0.77301 0.83147 21454.2 21614.3 14145.2 14254.7 21614.3 21747 14254.7 14345.7 14145.2 14254.7 0.83147 0.881921 14254.7 14345.7 0.881921 0.92388 30729.8 30886.9 26860.5 26992.8 30886.9 31000 26992.8 27088.1 26860.5 26992.8 21747 21851.4 26992.8 27088.1 21851.4 21926.6 31000 31068.2 27088.1 27145.6 31068.2 31091 27145.6 27164.8 27088.1 27145.6 21926.6 21971.9 27145.6 27164.8 21971.9 21987.1 21747 21851.4 14345.7 14417.2 21851.4 21926.6 14417.2 14468.8 14345.7 14417.2 0.92388 0.95694 14417.2 14468.8 0.95694 0.980785 21926.6 21971.9 14468.8 14500 21971.9 21987.1 14500 14510.4 14468.8 14500 0.980785 0.995185 14500 14510.4 0.995185 1 
