# vtk DataFile Version 3.0
#This file was generated by the deal.II library on 2022/11/25 at 3:28:20
ASCII
DATASET UNSTRUCTURED_GRID

POINTS 2048 double
1 0 0
0.994703 0.107819 0
0.9125 0 0
0.907805 0.0955667 0
0.994703 0.107819 0
0.978864 0.214599 0
0.907805 0.0955667 0
0.893766 0.190213 0
0.9125 0 0
0.907805 0.0955667 0
0.825 0 0
0.820907 0.0833146 0
0.907805 0.0955667 0
0.893766 0.190213 0
0.820907 0.0833146 0
0.808667 0.165827 0
0.978864 0.214599 0
0.952634 0.319313 0
0.893766 0.190213 0
0.870517 0.283028 0
0.952634 0.319313 0
0.916267 0.420952 0
0.870517 0.283028 0
0.838283 0.373116 0
0.893766 0.190213 0
0.870517 0.283028 0
0.808667 0.165827 0
0.788399 0.246742 0
0.870517 0.283028 0
0.838283 0.373116 0
0.788399 0.246742 0
0.760298 0.325281 0
0.825 0 0
0.820907 0.0833146 0
0.7375 0 0
0.734009 0.0710624 0
0.820907 0.0833146 0
0.808667 0.165827 0
0.734009 0.0710624 0
0.723569 0.14144 0
0.7375 0 0
0.734009 0.0710624 0
0.65 0 0
0.647111 0.0588103 0
0.734009 0.0710624 0
0.723569 0.14144 0
0.647111 0.0588103 0
0.638471 0.117054 0
0.808667 0.165827 0
0.788399 0.246742 0
0.723569 0.14144 0
0.706282 0.210456 0
0.788399 0.246742 0
0.760298 0.325281 0
0.706282 0.210456 0
0.682313 0.277445 0
0.723569 0.14144 0
0.706282 0.210456 0
0.638471 0.117054 0
0.624164 0.174171 0
0.706282 0.210456 0
0.682313 0.277445 0
0.624164 0.174171 0
0.604328 0.22961 0
0.916267 0.420952 0
0.870113 0.518536 0
0.838283 0.373116 0
0.797373 0.459612 0
0.870113 0.518536 0
0.814617 0.611127 0
0.797373 0.459612 0
0.748183 0.541681 0
0.838283 0.373116 0
0.797373 0.459612 0
0.760298 0.325281 0
0.724633 0.400687 0
0.797373 0.459612 0
0.748183 0.541681 0
0.724633 0.400687 0
0.681749 0.472235 0
0.814617 0.611127 0
0.750311 0.697833 0
0.748183 0.541681 0
0.691185 0.618533 0
0.750311 0.697833 0
0.677817 0.777817 0
0.691185 0.618533 0
0.626929 0.689429 0
0.748183 0.541681 0
0.691185 0.618533 0
0.681749 0.472235 0
0.632059 0.539234 0
0.691185 0.618533 0
0.626929 0.689429 0
0.632059 0.539234 0
0.576041 0.601041 0
0.760298 0.325281 0
0.724633 0.400687 0
0.682313 0.277445 0
0.651893 0.341763 0
0.724633 0.400687 0
0.681749 0.472235 0
0.651893 0.341763 0
0.615315 0.402788 0
0.682313 0.277445 0
0.651893 0.341763 0
0.604328 0.22961 0
0.579153 0.282838 0
0.651893 0.341763 0
0.615315 0.402788 0
0.579153 0.282838 0
0.548882 0.333342 0
0.681749 0.472235 0
0.632059 0.539234 0
0.615315 0.402788 0
0.572933 0.459935 0
0.632059 0.539234 0
0.576041 0.601041 0
0.572933 0.459935 0
0.525152 0.512652 0
0.615315 0.402788 0
0.572933 0.459935 0
0.548882 0.333342 0
0.513806 0.380636 0
0.572933 0.459935 0
0.525152 0.512652 0
0.513806 0.380636 0
0.474264 0.424264 0
0.65 0 0
0.647111 0.0588103 0
0.5625 0 0
0.560213 0.0465581 0
0.647111 0.0588103 0
0.638471 0.117054 0
0.560213 0.0465581 0
0.553373 0.0926679 0
0.5625 0 0
0.560213 0.0465581 0
0.475 0 0
0.473315 0.034306 0
0.560213 0.0465581 0
0.553373 0.0926679 0
0.473315 0.034306 0
0.468275 0.0682816 0
0.638471 0.117054 0
0.624164 0.174171 0
0.553373 0.0926679 0
0.542047 0.137885 0
0.624164 0.174171 0
0.604328 0.22961 0
0.542047 0.137885 0
0.526343 0.181775 0
0.553373 0.0926679 0
0.542047 0.137885 0
0.468275 0.0682816 0
0.459929 0.1016 0
0.542047 0.137885 0
0.526343 0.181775 0
0.459929 0.1016 0
0.448358 0.133939 0
0.475 0 0
0.473315 0.034306 0
0.3875 0 0
0.386417 0.0220539 0
0.473315 0.034306 0
0.468275 0.0682816 0
0.386417 0.0220539 0
0.383177 0.0438953 0
0.3875 0 0
0.386417 0.0220539 0
0.3 0 0
0.299518 0.00980171 0
0.386417 0.0220539 0
0.383177 0.0438953 0
0.299518 0.00980171 0
0.298079 0.019509 0
0.468275 0.0682816 0
0.459929 0.1016 0
0.383177 0.0438953 0
0.377812 0.0653141 0
0.459929 0.1016 0
0.448358 0.133939 0
0.377812 0.0653141 0
0.370373 0.0861038 0
0.383177 0.0438953 0
0.377812 0.0653141 0
0.298079 0.019509 0
0.295694 0.0290285 0
0.377812 0.0653141 0
0.370373 0.0861038 0
0.295694 0.0290285 0
0.292388 0.0382683 0
0.604328 0.22961 0
0.579153 0.282838 0
0.526343 0.181775 0
0.506413 0.223913 0
0.579153 0.282838 0
0.548882 0.333342 0
0.506413 0.223913 0
0.482448 0.263896 0
0.526343 0.181775 0
0.506413 0.223913 0
0.448358 0.133939 0
0.433672 0.164989 0
0.506413 0.223913 0
0.482448 0.263896 0
0.433672 0.164989 0
0.416014 0.19445 0
0.548882 0.333342 0
0.513806 0.380636 0
0.482448 0.263896 0
0.45468 0.301337 0
0.513806 0.380636 0
0.474264 0.424264 0
0.45468 0.301337 0
0.423376 0.335876 0
0.482448 0.263896 0
0.45468 0.301337 0
0.416014 0.19445 0
0.395554 0.222038 0
0.45468 0.301337 0
0.423376 0.335876 0
0.395554 0.222038 0
0.372487 0.247487 0
0.448358 0.133939 0
0.433672 0.164989 0
0.370373 0.0861038 0
0.360932 0.106064 0
0.433672 0.164989 0
0.416014 0.19445 0
0.360932 0.106064 0
0.349581 0.125003 0
0.370373 0.0861038 0
0.360932 0.106064 0
0.292388 0.0382683 0
0.288192 0.0471397 0
0.360932 0.106064 0
0.349581 0.125003 0
0.288192 0.0471397 0
0.283147 0.055557 0
0.416014 0.19445 0
0.395554 0.222038 0
0.349581 0.125003 0
0.336427 0.142738 0
0.395554 0.222038 0
0.372487 0.247487 0
0.336427 0.142738 0
0.321599 0.159099 0
0.349581 0.125003 0
0.336427 0.142738 0
0.283147 0.055557 0
0.277301 0.0634393 0
0.336427 0.142738 0
0.321599 0.159099 0
0.277301 0.0634393 0
0.270711 0.0707107 0
0.677817 0.777817 0
0.597833 0.850311 0
0.626929 0.689429 0
0.556033 0.753685 0
0.597833 0.850311 0
0.511127 0.914617 0
0.556033 0.753685 0
0.479181 0.810683 0
0.626929 0.689429 0
0.556033 0.753685 0
0.576041 0.601041 0
0.514234 0.657059 0
0.556033 0.753685 0
0.479181 0.810683 0
0.514234 0.657059 0
0.447235 0.706749 0
0.511127 0.914617 0
0.418536 0.970113 0
0.479181 0.810683 0
0.397112 0.859873 0
0.418536 0.970113 0
0.320952 1.01627 0
0.397112 0.859873 0
0.310616 0.900783 0
0.479181 0.810683 0
0.397112 0.859873 0
0.447235 0.706749 0
0.375687 0.749633 0
0.397112 0.859873 0
0.310616 0.900783 0
0.375687 0.749633 0
0.300281 0.785298 0
0.576041 0.601041 0
0.514234 0.657059 0
0.525152 0.512652 0
0.472435 0.560433 0
0.514234 0.657059 0
0.447235 0.706749 0
0.472435 0.560433 0
0.415288 0.602815 0
0.525152 0.512652 0
0.472435 0.560433 0
0.474264 0.424264 0
0.430636 0.463806 0
0.472435 0.560433 0
0.415288 0.602815 0
0.430636 0.463806 0
0.383342 0.498882 0
0.447235 0.706749 0
0.375687 0.749633 0
0.415288 0.602815 0
0.354263 0.639393 0
0.375687 0.749633 0
0.300281 0.785298 0
0.354263 0.639393 0
0.289945 0.669813 0
0.415288 0.602815 0
0.354263 0.639393 0
0.383342 0.498882 0
0.332838 0.529153 0
0.354263 0.639393 0
0.289945 0.669813 0
0.332838 0.529153 0
0.27961 0.554328 0
0.320952 1.01627 0
0.219313 1.05263 0
0.310616 0.900783 0
0.220528 0.933017 0
0.219313 1.05263 0
0.114599 1.07886 0
0.220528 0.933017 0
0.127713 0.956266 0
0.310616 0.900783 0
0.220528 0.933017 0
0.300281 0.785298 0
0.221742 0.813399 0
0.220528 0.933017 0
0.127713 0.956266 0
0.221742 0.813399 0
0.140827 0.833667 0
0.114599 1.07886 0
0.00781885 1.0947 0
0.127713 0.956266 0
0.0330667 0.970305 0
0.00781885 1.0947 0
-0.1 1.1 0
0.0330667 0.970305 0
-0.0625 0.975 0
0.127713 0.956266 0
0.0330667 0.970305 0
0.140827 0.833667 0
0.0583146 0.845907 0
0.0330667 0.970305 0
-0.0625 0.975 0
0.0583146 0.845907 0
-0.025 0.85 0
0.300281 0.785298 0
0.221742 0.813399 0
0.289945 0.669813 0
0.222956 0.693782 0
0.221742 0.813399 0
0.140827 0.833667 0
0.222956 0.693782 0
0.15394 0.711069 0
0.289945 0.669813 0
0.222956 0.693782 0
0.27961 0.554328 0
0.224171 0.574164 0
0.222956 0.693782 0
0.15394 0.711069 0
0.224171 0.574164 0
0.167054 0.588471 0
0.140827 0.833667 0
0.0583146 0.845907 0
0.15394 0.711069 0
0.0835624 0.721509 0
0.0583146 0.845907 0
-0.025 0.85 0
0.0835624 0.721509 0
0.0125 0.725 0
0.15394 0.711069 0
0.0835624 0.721509 0
0.167054 0.588471 0
0.10881 0.597111 0
0.0835624 0.721509 0
0.0125 0.725 0
0.10881 0.597111 0
0.05 0.6 0
0.474264 0.424264 0
0.430636 0.463806 0
0.423376 0.335876 0
0.388837 0.36718 0
0.430636 0.463806 0
0.383342 0.498882 0
0.388837 0.36718 0
0.351396 0.394948 0
0.423376 0.335876 0
0.388837 0.36718 0
0.372487 0.247487 0
0.347038 0.270554 0
0.388837 0.36718 0
0.351396 0.394948 0
0.347038 0.270554 0
0.31945 0.291014 0
0.383342 0.498882 0
0.332838 0.529153 0
0.351396 0.394948 0
0.311413 0.418913 0
0.332838 0.529153 0
0.27961 0.554328 0
0.311413 0.418913 0
0.269275 0.438843 0
0.351396 0.394948 0
0.311413 0.418913 0
0.31945 0.291014 0
0.289989 0.308672 0
0.311413 0.418913 0
0.269275 0.438843 0
0.289989 0.308672 0
0.258939 0.323358 0
0.372487 0.247487 0
0.347038 0.270554 0
0.321599 0.159099 0
0.305238 0.173927 0
0.347038 0.270554 0
0.31945 0.291014 0
0.305238 0.173927 0
0.287503 0.187081 0
0.321599 0.159099 0
0.305238 0.173927 0
0.270711 0.0707107 0
0.263439 0.077301 0
0.305238 0.173927 0
0.287503 0.187081 0
0.263439 0.077301 0
0.255557 0.083147 0
0.31945 0.291014 0
0.289989 0.308672 0
0.287503 0.187081 0
0.268564 0.198432 0
0.289989 0.308672 0
0.258939 0.323358 0
0.268564 0.198432 0
0.248604 0.207873 0
0.287503 0.187081 0
0.268564 0.198432 0
0.255557 0.083147 0
0.24714 0.0881921 0
0.268564 0.198432 0
0.248604 0.207873 0
0.24714 0.0881921 0
0.238268 0.092388 0
0.27961 0.554328 0
0.224171 0.574164 0
0.269275 0.438843 0
0.225385 0.454547 0
0.224171 0.574164 0
0.167054 0.588471 0
0.225385 0.454547 0
0.180168 0.465873 0
0.269275 0.438843 0
0.225385 0.454547 0
0.258939 0.323358 0
0.2266 0.334929 0
0.225385 0.454547 0
0.180168 0.465873 0
0.2266 0.334929 0
0.193282 0.343275 0
0.167054 0.588471 0
0.10881 0.597111 0
0.180168 0.465873 0
0.134058 0.472713 0
0.10881 0.597111 0
0.05 0.6 0
0.134058 0.472713 0
0.0875 0.475 0
0.180168 0.465873 0
0.134058 0.472713 0
0.193282 0.343275 0
0.159306 0.348315 0
0.134058 0.472713 0
0.0875 0.475 0
0.159306 0.348315 0
0.125 0.35 0
0.258939 0.323358 0
0.2266 0.334929 0
0.248604 0.207873 0
0.227814 0.215312 0
0.2266 0.334929 0
0.193282 0.343275 0
0.227814 0.215312 0
0.206395 0.220677 0
0.248604 0.207873 0
0.227814 0.215312 0
0.238268 0.092388 0
0.229028 0.095694 0
0.227814 0.215312 0
0.206395 0.220677 0
0.229028 0.095694 0
0.219509 0.0980785 0
0.193282 0.343275 0
0.159306 0.348315 0
0.206395 0.220677 0
0.184554 0.223917 0
0.159306 0.348315 0
0.125 0.35 0
0.184554 0.223917 0
0.1625 0.225 0
[...]
POINT_DATA 2048
SCALARS solution double 1
LOOKUP_TABLE default
1 1.00106 0.943544 0.944667 1.00106 1.00423 0.944667 0.948017 0.943544 0.944667 0.879831 0.880986 0.944667 0.948017 0.880986 0.884423 1.00423 1.00947 0.948017 0.953533 1.00947 1.01675 0.953533 0.961123 0.948017 0.953533 0.884423 0.890065 0.953533 0.961123 0.890065 0.897792 0.879831 0.880986 0.806541 0.807694 0.880986 0.884423 0.807694 0.811122 0.806541 0.807694 0.720146 0.721259 0.807694 0.811122 0.721259 0.724568 0.884423 0.890065 0.811122 0.816738 0.890065 0.897792 0.816738 0.824409 0.811122 0.816738 0.724568 0.729986 0.816738 0.824409 0.729986 0.737376 1.01675 1.02598 0.961123 0.970665 1.02598 1.03708 0.970665 0.982019 0.961123 0.970665 0.897792 0.907448 0.970665 0.982019 0.907448 0.918858 1.03708 1.04994 0.982019 0.995031 1.04994 1.06444 0.995031 1.00954 0.982019 0.995031 0.918858 0.931832 0.995031 1.00954 0.931832 0.94618 0.897792 0.907448 0.824409 0.833961 0.907448 0.918858 0.833961 0.845199 0.824409 0.833961 0.737376 0.746565 0.833961 0.845199 0.746565 0.757351 0.918858 0.931832 0.845199 0.857914 0.931832 0.94618 0.857914 0.871896 0.845199 0.857914 0.757351 0.769522 0.857914 0.871896 0.769522 0.782862 0.720146 0.721259 0.614887 0.615913 0.721259 0.724568 0.615913 0.618963 0.614887 0.615913 0.480379 0.481247 0.615913 0.618963 0.481247 0.483827 0.724568 0.729986 0.618963 0.623958 0.729986 0.737376 0.623958 0.630773 0.618963 0.623958 0.483827 0.488059 0.623958 0.630773 0.488059 0.493844 0.480379 0.481247 0.294883 0.295462 0.481247 0.483827 0.295462 0.297186 0.294883 0.295462 0 0 0.295462 0.297186 0 0 0.483827 0.488059 0.297186 0.300023 0.488059 0.493844 0.300023 0.303918 0.297186 0.300023 0 0 0.300023 0.303918 0 0 0.737376 0.746565 0.630773 0.639248 0.746565 0.757351 0.639248 0.649197 0.630773 0.639248 0.493844 0.501055 0.639248 0.649197 0.501055 0.509542 0.757351 0.769522 0.649197 0.660419 0.769522 0.782862 0.660419 0.67271 0.649197 0.660419 0.509542 0.519142 0.660419 0.67271 0.519142 0.529684 0.493844 0.501055 0.303918 0.308802 0.501055 0.509542 0.308802 0.314589 0.303918 0.308802 0 0 0.308802 0.314589 0 0 0.509542 0.519142 0.314589 0.321185 0.519142 0.529684 0.321185 0.328488 0.314589 0.321185 0 0 0.321185 0.328488 0 0 1.06444 1.08043 1.00954 1.02537 1.08043 1.09777 1.02537 1.04236 1.00954 1.02537 0.94618 0.961708 1.02537 1.04236 0.961708 0.978231 1.09777 1.11629 1.04236 1.06032 1.11629 1.13581 1.06032 1.07909 1.04236 1.06032 0.978231 0.995568 1.06032 1.07909 0.995568 1.01354 0.94618 0.961708 0.871896 0.886937 0.961708 0.978231 0.886937 0.902842 0.871896 0.886937 0.782862 0.797161 0.886937 0.902842 0.797161 0.812217 0.978231 0.995568 0.902842 0.919423 0.995568 1.01354 0.919423 0.936504 0.902842 0.919423 0.812217 0.827843 0.919423 0.936504 0.827843 0.843864 1.13581 1.15614 1.07909 1.09849 1.15614 1.17708 1.09849 1.11834 1.07909 1.09849 1.01354 1.03198 1.09849 1.11834 1.03198 1.05072 1.17708 1.19844 1.11834 1.13845 1.19844 1.22 1.13845 1.15864 1.11834 1.13845 1.05072 1.0696 1.13845 1.15864 1.0696 1.08845 1.01354 1.03198 0.936504 0.953919 1.03198 1.05072 0.953919 0.971511 0.936504 0.953919 0.843864 0.860119 0.953919 0.971511 0.860119 0.876458 1.05072 1.0696 0.971511 0.989129 1.0696 1.08845 0.989129 1.00663 0.971511 0.989129 0.876458 0.89274 0.989129 1.00663 0.89274 0.908837 0.782862 0.797161 0.67271 0.68587 0.797161 0.812217 0.68587 0.699706 0.67271 0.68587 0.529684 0.540998 0.68587 0.699706 0.540998 0.552918 0.812217 0.827843 0.699706 0.714035 0.827843 0.843864 0.714035 0.72869 0.699706 0.714035 0.552918 0.565284 0.714035 0.72869 0.565284 0.577948 0.529684 0.540998 0.328488 0.336394 0.540998 0.552918 0.336394 0.344796 0.328488 0.336394 0 0 0.336394 0.344796 0 0 0.552918 0.565284 0.344796 0.353591 0.565284 0.577948 0.353591 0.362677 0.344796 0.353591 0 0 0.353591 0.362677 0 0 0.843864 0.860119 0.72869 0.743517 0.860119 0.876458 0.743517 0.758373 0.72869 0.743517 0.577948 0.590769 0.743517 0.758373 0.590769 0.603619 0.876458 0.89274 0.758373 0.773129 0.89274 0.908837 0.773129 0.787666 0.758373 0.773129 0.603619 0.616381 0.773129 0.787666 0.616381 0.628946 0.577948 0.590769 0.362677 0.371955 0.590769 0.603619 0.371955 0.381331 0.362677 0.371955 0 0 0.371955 0.381331 0 0 0.603619 0.616381 0.381331 0.390715 0.616381 0.628946 0.390715 0.400024 0.381331 0.390715 0 0 0.390715 0.400024 0 0 1.22 1.24156 1.15864 1.17874 1.24156 1.26292 1.17874 1.19856 1.15864 1.17874 1.08845 1.10711 1.17874 1.19856 1.10711 1.12544 1.26292 1.28386 1.19856 1.21793 1.28386 1.30419 1.21793 1.23667 1.19856 1.21793 1.12544 1.14328 1.21793 1.23667 1.14328 1.16047 1.08845 1.10711 1.00663 1.02387 1.10711 1.12544 1.02387 1.04073 1.00663 1.02387 0.908837 0.924625 1.02387 1.04073 0.924625 0.939989 1.12544 1.14328 1.04073 1.05706 1.14328 1.16047 1.05706 1.07275 1.04073 1.05706 0.939989 0.954817 1.05706 1.07275 0.954817 0.969007 1.30419 1.32371 1.23667 1.25461 1.32371 1.34223 1.25461 1.2716 1.23667 1.25461 1.16047 1.17689 1.25461 1.2716 1.17689 1.19239 1.34223 1.35957 1.2716 1.28747 1.35957 1.37556 1.28747 1.30209 1.2716 1.28747 1.19239 1.20684 1.28747 1.30209 1.20684 1.22012 1.16047 1.17689 1.07275 1.08768 1.17689 1.19239 1.08768 1.10173 1.07275 1.08768 0.969007 0.982459 1.08768 1.10173 0.982459 0.99508 1.19239 1.20684 1.10173 1.11479 1.20684 1.22012 1.11479 1.12677 1.10173 1.11479 0.99508 1.00678 1.11479 1.12677 1.00678 1.01748 0.908837 0.924625 0.787666 0.801873 0.924625 0.939989 0.801873 0.815649 0.787666 0.801873 0.628946 0.641214 0.801873 0.815649 0.641214 0.653095 0.939989 0.954817 0.815649 0.828898 0.954817 0.969007 0.828898 0.841535 0.815649 0.828898 0.653095 0.664505 0.828898 0.841535 0.664505 0.675369 0.628946 0.641214 0.400024 0.409176 0.641214 0.653095 0.409176 0.418098 0.400024 0.409176 0 0 0.409176 0.418098 0 0 0.653095 0.664505 0.418098 0.426718 0.664505 0.675369 0.426718 0.434971 0.418098 0.426718 0 0 0.426718 0.434971 0 0 0.969007 0.982459 0.841535 0.853475 0.982459 0.99508 0.853475 0.864644 0.841535 0.853475 0.675369 0.685617 0.853475 0.864644 0.685617 0.695185 0.99508 1.00678 0.864644 0.874971 1.00678 1.01748 0.874971 0.884392 0.864644 0.874971 0.695185 0.704016 0.874971 0.884392 0.704016 0.712058 0.675369 0.685617 0.434971 0.442795 0.685617 0.695185 0.442795 0.450133 0.434971 0.442795 0 0 0.442795 0.450133 0 0 0.695185 0.704016 0.450133 0.456934 0.704016 0.712058 0.456934 0.46315 0.450133 0.456934 0 0 0.456934 0.46315 0 0 1.37556 1.39006 1.30209 1.31533 1.39006 1.40292 1.31533 1.32705 1.30209 1.31533 1.22012 1.23212 1.31533 1.32705 1.23212 1.24273 1.40292 1.41402 1.32705 1.33715 1.41402 1.42325 1.33715 1.34555 1.32705 1.33715 1.24273 1.25187 1.33715 1.34555 1.25187 1.25946 1.22012 1.23212 1.12677 1.13757 1.23212 1.24273 1.13757 1.14711 1.12677 1.13757 1.01748 1.02711 1.13757 1.14711 1.02711 1.0356 1.24273 1.25187 1.14711 1.15531 1.25187 1.25946 1.15531 1.16211 1.14711 1.15531 1.0356 1.04288 1.15531 1.16211 1.04288 1.04892 1.42325 1.43053 1.34555 1.35216 1.43053 1.43577 1.35216 1.35693 1.34555 1.35216 1.25946 1.26543 1.35216 1.35693 1.26543 1.26973 1.43577 1.43894 1.35693 1.35981 1.43894 1.44 1.35981 1.36077 1.35693 1.35981 1.26973 1.27233 1.35981 1.36077 1.27233 1.2732 1.25946 1.26543 1.16211 1.16746 1.26543 1.26973 1.16746 1.17131 1.16211 1.16746 1.04892 1.05365 1.16746 1.17131 1.05365 1.05706 1.26973 1.27233 1.17131 1.17363 1.27233 1.2732 1.17363 1.1744 1.17131 1.17363 1.05706 1.05911 1.17363 1.1744 1.05911 1.0598 1.01748 1.02711 0.884392 0.892848 1.02711 1.0356 0.892848 0.900286 0.884392 0.892848 0.712058 0.719264 0.892848 0.900286 0.719264 0.725593 1.0356 1.04288 0.900286 0.90666 1.04288 1.04892 0.90666 0.91193 0.900286 0.90666 0.725593 0.73101 0.90666 0.91193 0.73101 0.735483 0.712058 0.719264 0.46315 0.468737 0.719264 0.725593 0.468737 0.473659 0.46315 0.468737 0 0 0.468737 0.473659 0 0 0.725593 0.73101 0.473659 0.47788 0.73101 0.735483 0.47788 0.481373 0.473659 0.47788 0 0 0.47788 0.481373 0 0 1.04892 1.05365 0.91193 0.916063 1.05365 1.05706 0.916063 0.919034 0.91193 0.916063 0.735483 0.738988 0.916063 0.919034 0.738988 0.741506 1.05706 1.05911 0.919034 0.920824 1.05911 1.0598 0.920824 0.921422 0.919034 0.920824 0.741506 0.743022 0.920824 0.921422 0.743022 0.743529 0.735483 0.738988 0.481373 0.484114 0.738988 0.741506 0.484114 0.486086 0.481373 0.484114 0 0 0.484114 0.486086 0 0 0.741506 0.743022 0.486086 0.487274 0.743022 0.743529 0.487274 0.487671 0.486086 0.487274 0 0 0.487274 0.487671 0 0 1.44 1.43894 1.36077 1.35981 1.43894 1.43577 1.35981 1.35693 1.36077 1.35981 1.2732 1.27233 1.35981 1.35693 1.27233 1.26973 1.43577 1.43053 1.35693 1.35216 1.43053 1.42325 1.35216 1.34555 1.35693 1.35216 1.26973 1.26543 1.35216 1.34555 1.26543 1.25946 1.2732 1.27233 1.1744 1.17363 1.27233 1.26973 1.17363 1.17131 1.1744 1.17363 1.0598 1.05911 1.17363 1.17131 1.05911 1.05706 1.26973 1.26543 1.17131 1.16746 1.26543 1.25946 1.16746 1.16211 1.17131 1.16746 1.05706 1.05365 1.16746 1.16211 1.05365 1.04892 1.42325 1.41402 1.34555 1.33715 1.41402 1.40292 1.33715 1.32705 1.34555 1.33715 1.25946 1.25187 1.33715 1.32705 1.25187 1.24273 1.40292 1.39006 1.32705 1.31533 1.39006 1.37556 1.31533 1.30209 1.32705 1.31533 1.24273 1.23212 1.31533 1.30209 1.23212 1.22012 1.25946 1.25187 1.16211 1.15531 1.25187 1.24273 1.15531 1.14711 1.16211 1.15531 1.04892 1.04288 1.15531 1.14711 1.04288 1.0356 1.24273 1.23212 1.14711 1.13757 1.23212 1.22012 1.13757 1.12677 1.14711 1.13757 1.0356 1.02711 1.13757 1.12677 1.02711 1.01748 1.0598 1.05911 0.921422 0.920824 1.05911 1.05706 0.920824 0.919034 0.921422 0.920824 0.743529 0.743022 0.920824 0.919034 0.743022 0.741506 1.05706 1.05365 0.919034 0.916063 1.05365 1.04892 0.916063 0.91193 0.919034 0.916063 0.741506 0.738988 0.916063 0.91193 0.738988 0.735483 0.743529 0.743022 0.487671 0.487274 0.743022 0.741506 0.487274 0.486086 0.487671 0.487274 0 0 0.487274 0.486086 0 0 0.741506 0.738988 0.486086 0.484114 0.738988 0.735483 0.484114 0.481373 0.486086 0.484114 0 0 0.484114 0.481373 0 0 1.04892 1.04288 0.91193 0.90666 1.04288 1.0356 0.90666 0.900286 0.91193 0.90666 0.735483 0.73101 0.90666 0.900286 0.73101 0.725593 1.0356 1.02711 0.900286 0.892848 1.02711 1.01748 0.892848 0.884392 0.900286 0.892848 0.725593 0.719264 0.892848 0.884392 0.719264 0.712058 0.735483 0.73101 0.481373 0.47788 0.73101 0.725593 0.47788 0.473659 0.481373 0.47788 0 0 0.47788 0.473659 0 0 0.725593 0.719264 0.473659 0.468737 0.719264 0.712058 0.468737 0.46315 0.473659 0.468737 0 0 0.468737 0.46315 0 0 1.37556 1.35957 1.30209 1.28747 1.35957 1.34223 1.28747 1.2716 1.30209 1.28747 1.22012 1.20684 1.28747 1.2716 1.20684 1.19239 1.34223 1.32371 1.2716 1.25462 1.32371 1.30419 1.25462 1.23667 1.2716 1.25462 1.19239 1.17689 1.25462 1.23667 1.17689 1.16047 1.22012 1.20684 1.12677 1.11479 1.20684 1.19239 1.11479 1.10173 1.12677 1.11479 1.01748 1.00678 1.11479 1.10173 1.00678 0.99508 1.19239 1.17689 1.10173 1.08768 1.17689 1.16047 1.08768 1.07275 1.10173 1.08768 0.99508 0.982459 1.08768 1.07275 0.982459 0.969007 1.30419 1.28386 1.23667 1.21793 1.28386 1.26292 1.21793 1.19856 1.23667 1.21793 1.16047 1.14328 1.21793 1.19856 1.14328 1.12544 1.26292 1.24156 1.19856 1.17874 1.24156 1.22 1.17874 1.15864 1.19856 1.17874 1.12544 1.10711 1.17874 1.15864 1.10711 1.08845 1.16047 1.14328 1.07275 1.05706 1.14328 1.12544 1.05706 1.04073 1.07275 1.05706 0.969007 0.954818 1.05706 1.04073 0.954818 0.939989 1.12544 1.10711 1.04073 1.02387 1.10711 1.08845 1.02387 1.00663 1.04073 1.02387 0.939989 0.924625 1.02387 1.00663 0.924625 0.908837 1.01748 1.00678 0.884392 0.874971 1.00678 0.99508 0.874971 0.864644 0.884392 0.874971 0.712058 0.704016 0.874971 0.864644 0.704016 0.695186 0.99508 0.982459 0.864644 0.853475 0.982459 0.969007 0.853475 0.841534 0.864644 0.853475 0.695186 0.685617 0.853475 0.841534 0.685617 0.675369 0.712058 0.704016 0.46315 0.456934 0.704016 0.695186 0.456934 0.450133 0.46315 0.456934 0 0 0.456934 0.450133 0 0 0.695186 0.685617 0.450133 0.442795 0.685617 0.675369 0.442795 0.434971 0.450133 0.442795 0 0 0.442795 0.434971 0 0 0.969007 0.954818 0.841534 0.828899 0.954818 0.939989 0.828899 0.815649 0.841534 0.828899 0.675369 0.664505 0.828899 0.815649 0.664505 0.653095 0.939989 0.924625 0.815649 0.801873 0.924625 0.908837 0.801873 0.787666 0.815649 0.801873 0.653095 0.641214 0.801873 0.787666 0.641214 0.628946 0.675369 0.664505 0.434971 0.426718 0.664505 0.653095 0.426718 0.418098 0.434971 0.426718 0 0 0.426718 0.418098 0 0 0.653095 0.641214 0.418098 0.409176 0.641214 0.628946 0.409176 0.400024 0.418098 0.409176 0 0 0.409176 0.400024 0 0 1.22 1.19844 1.15864 1.13845 1.19844 1.17708 1.13845 1.11834 1.15864 1.13845 1.08845 1.0696 1.13845 1.11834 1.0696 1.05072 1.17708 1.15614 1.11834 1.09849 1.15614 1.13581 1.09849 1.07909 1.11834 1.09849 1.05072 1.03198 1.09849 1.07909 1.03198 1.01354 1.08845 1.0696 1.00663 0.989129 1.0696 1.05072 0.989129 0.971511 1.00663 0.989129 0.908837 0.89274 0.989129 0.971511 0.89274 0.876457 1.05072 1.03198 0.971511 0.953919 1.03198 1.01354 0.953919 0.936504 0.971511 0.953919 0.876457 0.860119 0.953919 0.936504 0.860119 0.843864 1.13581 1.11629 1.07909 1.06032 1.11629 1.09777 1.06032 1.04236 1.07909 1.06032 1.01354 0.995568 1.06032 1.04236 0.995568 0.978231 1.09777 1.08043 1.04236 1.02537 1.08043 1.06444 1.02537 1.00954 1.04236 1.02537 0.978231 0.961708 1.02537 1.00954 0.961708 0.94618 1.01354 0.995568 0.936504 0.919423 0.995568 0.978231 0.919423 0.902842 0.936504 0.919423 0.843864 0.827843 0.919423 0.902842 0.827843 0.812217 0.978231 0.961708 0.902842 0.886937 0.961708 0.94618 0.886937 0.871896 0.902842 0.886937 0.812217 0.797161 0.886937 0.871896 0.797161 0.782862 0.908837 0.89274 0.787666 0.773129 0.89274 0.876457 0.773129 0.758373 0.787666 0.773129 0.628946 0.616381 0.773129 0.758373 0.616381 0.603619 0.876457 0.860119 0.758373 0.743517 0.860119 0.843864 0.743517 0.72869 0.758373 0.743517 0.603619 0.590769 0.743517 0.72869 0.590769 0.577947 0.628946 0.616381 0.400024 0.390715 0.616381 0.603619 0.390715 0.381331 0.400024 0.390715 0 0 0.390715 0.381331 0 0 0.603619 0.590769 0.381331 0.371955 0.590769 0.577947 0.371955 0.362677 0.381331 0.371955 0 0 0.371955 0.362677 0 0 0.843864 0.827843 0.72869 0.714035 0.827843 0.812217 0.714035 0.699706 0.72869 0.714035 0.577947 0.565284 0.714035 0.699706 0.565284 0.552918 0.812217 0.797161 0.699706 0.68587 0.797161 0.782862 0.68587 0.672711 0.699706 0.68587 0.552918 0.540998 0.68587 0.672711 0.540998 0.529684 0.577947 0.565284 0.362677 0.353591 0.565284 0.552918 0.353591 0.344796 0.362677 0.353591 0 0 0.353591 0.344796 0 0 0.552918 0.540998 0.344796 0.336393 0.540998 0.529684 0.336393 0.328488 0.344796 0.336393 0 0 0.336393 0.328488 0 0 1.06444 1.04994 1.00954 0.995031 1.04994 1.03708 0.995031 0.982019 1.00954 0.995031 0.94618 0.931832 0.995031 0.982019 0.931832 0.918858 1.03708 1.02598 0.982019 0.970665 1.02598 1.01675 0.970665 0.961123 0.982019 0.970665 0.918858 0.907448 0.970665 0.961123 0.907448 0.897792 0.94618 0.931832 0.871896 0.857914 0.931832 0.918858 0.857914 0.845199 0.871896 0.857914 0.782862 0.769522 0.857914 0.845199 0.769522 0.757351 0.918858 0.907448 0.845199 0.833961 0.907448 0.897792 0.833961 0.824409 0.845199 0.833961 0.757351 0.746565 0.833961 0.824409 0.746565 0.737377 1.01675 1.00947 0.961123 0.953533 1.00947 1.00423 0.953533 0.948017 0.961123 0.953533 0.897792 0.890065 0.953533 0.948017 0.890065 0.884423 1.00423 1.00106 0.948017 0.944667 1.00106 1 0.944667 0.943544 0.948017 0.944667 0.884423 0.880986 0.944667 0.943544 0.880986 0.879831 0.897792 0.890065 0.824409 0.816738 0.890065 0.884423 0.816738 0.811122 0.824409 0.816738 0.737377 0.729986 0.816738 0.811122 0.729986 0.724568 0.884423 0.880986 0.811122 0.807694 0.880986 0.879831 0.807694 0.806541 0.811122 0.807694 0.724568 0.721259 0.807694 0.806541 0.721259 0.720146 0.782862 0.769522 0.672711 0.660419 0.769522 0.757351 0.660419 0.649197 0.672711 0.660419 0.529684 0.519142 0.660419 0.649197 0.519142 0.509542 0.757351 0.746565 0.649197 0.639248 0.746565 0.737377 0.639248 0.630773 0.649197 0.639248 0.509542 0.501055 0.639248 0.630773 0.501055 0.493844 0.529684 0.519142 0.328488 0.321185 0.519142 0.509542 0.321185 0.314589 0.328488 0.321185 0 0 0.321185 0.314589 0 0 0.509542 0.501055 0.314589 0.308802 0.501055 0.493844 0.308802 0.303918 0.314589 0.308802 0 0 0.308802 0.303918 0 0 0.737377 0.729986 0.630773 0.623958 0.729986 0.724568 0.623958 0.618963 0.630773 0.623958 0.493844 0.488059 0.623958 0.618963 0.488059 0.483827 0.724568 0.721259 0.618963 0.615913 0.721259 0.720146 0.615913 0.614887 0.618963 0.615913 0.483827 0.481247 0.615913 0.614887 0.481247 0.480379 0.493844 0.488059 0.303918 0.300023 0.488059 0.483827 0.300023 0.297186 0.303918 0.300023 0 0 0.300023 0.297186 0 0 0.483827 0.481247 0.297186 0.295461 0.481247 0.480379 0.295461 0.294883 0.297186 0.295461 0 0 0.295461 0.294883 0 0 
