# vtk DataFile Version 3.0
#This file was generated by the deal.II library on 2022/11/25 at 3:30:46
ASCII
DATASET UNSTRUCTURED_GRID

POINTS 304 double
0 0 0
0.25 0 0
0 0.25 0
0.25 0.25 0
0.25 0 0
0.5 0 0
0.25 0.25 0
0.5 0.25 0
0 0.25 0
0.25 0.25 0
0 0.5 0
0.25 0.5 0
0.5 0 0
0.75 0 0
0.5 0.25 0
0.75 0.25 0
0.75 0 0
1 0 0
0.75 0.25 0
1 0.25 0
0.75 0.25 0
1 0.25 0
0.75 0.5 0
1 0.5 0
0 0.5 0
0.25 0.5 0
0 0.75 0
0.25 0.75 0
0 0.75 0
0.25 0.75 0
0 1 0
0.25 1 0
0.25 0.75 0
0.5 0.75 0
0.25 1 0
0.5 1 0
0.75 0.5 0
1 0.5 0
0.75 0.75 0
1 0.75 0
0.5 0.75 0
0.75 0.75 0
0.5 1 0
0.75 1 0
0.75 0.75 0
1 0.75 0
0.75 1 0
1 1 0
0.25 0.25 0
0.375 0.25 0
0.25 0.375 0
0.375 0.375 0
0.375 0.25 0
0.5 0.25 0
0.375 0.375 0
0.5 0.375 0
0.25 0.375 0
0.375 0.375 0
0.25 0.5 0
0.375 0.5 0
0.5 0.25 0
0.625 0.25 0
0.5 0.375 0
0.625 0.375 0
0.625 0.25 0
0.75 0.25 0
0.625 0.375 0
0.75 0.375 0
0.625 0.375 0
0.75 0.375 0
0.625 0.5 0
0.75 0.5 0
0.25 0.5 0
0.375 0.5 0
0.25 0.625 0
0.375 0.625 0
0.25 0.625 0
0.375 0.625 0
0.25 0.75 0
0.375 0.75 0
0.375 0.625 0
0.5 0.625 0
0.375 0.75 0
0.5 0.75 0
0.625 0.5 0
0.75 0.5 0
0.625 0.625 0
0.75 0.625 0
0.5 0.625 0
0.625 0.625 0
0.5 0.75 0
0.625 0.75 0
0.625 0.625 0
0.75 0.625 0
0.625 0.75 0
0.75 0.75 0
0.375 0.375 0
0.4375 0.375 0
0.375 0.4375 0
0.4375 0.4375 0
0.4375 0.375 0
0.5 0.375 0
0.4375 0.4375 0
0.5 0.4375 0
0.375 0.4375 0
0.4375 0.4375 0
0.375 0.5 0
0.4375 0.5 0
0.5 0.375 0
0.5625 0.375 0
0.5 0.4375 0
0.5625 0.4375 0
0.5625 0.375 0
0.625 0.375 0
0.5625 0.4375 0
0.625 0.4375 0
0.5625 0.4375 0
0.625 0.4375 0
0.5625 0.5 0
0.625 0.5 0
0.375 0.5 0
0.4375 0.5 0
0.375 0.5625 0
0.4375 0.5625 0
0.375 0.5625 0
0.4375 0.5625 0
0.375 0.625 0
0.4375 0.625 0
0.4375 0.5625 0
0.5 0.5625 0
0.4375 0.625 0
0.5 0.625 0
0.5625 0.5 0
0.625 0.5 0
0.5625 0.5625 0
0.625 0.5625 0
0.5 0.5625 0
0.5625 0.5625 0
0.5 0.625 0
0.5625 0.625 0
0.5625 0.5625 0
0.625 0.5625 0
0.5625 0.625 0
0.625 0.625 0
0.4375 0.4375 0
0.46875 0.4375 0
0.4375 0.46875 0
0.46875 0.46875 0
0.46875 0.4375 0
0.5 0.4375 0
0.46875 0.46875 0
0.5 0.46875 0
0.4375 0.46875 0
0.46875 0.46875 0
0.4375 0.5 0
0.46875 0.5 0
0.5 0.4375 0
0.53125 0.4375 0
0.5 0.46875 0
0.53125 0.46875 0
0.53125 0.4375 0
0.5625 0.4375 0
0.53125 0.46875 0
0.5625 0.46875 0
0.53125 0.46875 0
0.5625 0.46875 0
0.53125 0.5 0
0.5625 0.5 0
0.4375 0.5 0
0.46875 0.5 0
0.4375 0.53125 0
0.46875 0.53125 0
0.4375 0.53125 0
0.46875 0.53125 0
0.4375 0.5625 0
0.46875 0.5625 0
0.46875 0.53125 0
0.5 0.53125 0
0.46875 0.5625 0
0.5 0.5625 0
0.53125 0.5 0
0.5625 0.5 0
0.53125 0.53125 0
0.5625 0.53125 0
0.5 0.53125 0
0.53125 0.53125 0
0.5 0.5625 0
0.53125 0.5625 0
0.53125 0.53125 0
0.5625 0.53125 0
0.53125 0.5625 0
0.5625 0.5625 0
0.46875 0.46875 0
0.484375 0.46875 0
0.46875 0.484375 0
0.484375 0.484375 0
0.484375 0.46875 0
0.5 0.46875 0
0.484375 0.484375 0
0.5 0.484375 0
0.46875 0.484375 0
0.484375 0.484375 0
0.46875 0.5 0
0.484375 0.5 0
0.5 0.46875 0
0.515625 0.46875 0
0.5 0.484375 0
0.515625 0.484375 0
0.515625 0.46875 0
0.53125 0.46875 0
0.515625 0.484375 0
0.53125 0.484375 0
0.515625 0.484375 0
0.53125 0.484375 0
0.515625 0.5 0
0.53125 0.5 0
0.46875 0.5 0
0.484375 0.5 0
0.46875 0.515625 0
0.484375 0.515625 0
0.46875 0.515625 0
0.484375 0.515625 0
0.46875 0.53125 0
0.484375 0.53125 0
0.484375 0.515625 0
0.5 0.515625 0
0.484375 0.53125 0
0.5 0.53125 0
0.515625 0.5 0
0.53125 0.5 0
0.515625 0.515625 0
0.53125 0.515625 0
0.5 0.515625 0
0.515625 0.515625 0
0.5 0.53125 0
0.515625 0.53125 0
0.515625 0.515625 0
0.53125 0.515625 0
0.515625 0.53125 0
0.53125 0.53125 0
0.484375 0.484375 0
0.492188 0.484375 0
0.484375 0.492188 0
0.492188 0.492188 0
0.492188 0.484375 0
0.5 0.484375 0
0.492188 0.492188 0
0.5 0.492188 0
0.484375 0.492188 0
0.492188 0.492188 0
0.484375 0.5 0
0.492188 0.5 0
0.492188 0.492188 0
0.5 0.492188 0
0.492188 0.5 0
0.5 0.5 0
0.5 0.484375 0
0.507812 0.484375 0
0.5 0.492188 0
0.507812 0.492188 0
0.507812 0.484375 0
0.515625 0.484375 0
0.507812 0.492188 0
0.515625 0.492188 0
0.5 0.492188 0
0.507812 0.492188 0
0.5 0.5 0
0.507812 0.5 0
0.507812 0.492188 0
0.515625 0.492188 0
0.507812 0.5 0
0.515625 0.5 0
0.484375 0.5 0
0.492188 0.5 0
0.484375 0.507812 0
0.492188 0.507812 0
0.492188 0.5 0
0.5 0.5 0
0.492188 0.507812 0
0.5 0.507812 0
0.484375 0.507812 0
0.492188 0.507812 0
0.484375 0.515625 0
0.492188 0.515625 0
0.492188 0.507812 0
0.5 0.507812 0
0.492188 0.515625 0
0.5 0.515625 0
0.5 0.5 0
0.507812 0.5 0
0.5 0.507812 0
0.507812 0.507812 0
0.507812 0.5 0
0.515625 0.5 0
0.507812 0.507812 0
0.515625 0.507812 0
0.5 0.507812 0
0.507812 0.507812 0
0.5 0.515625 0
0.507812 0.515625 0
0.507812 0.507812 0
0.515625 0.507812 0
0.507812 0.515625 0
0.515625 0.515625 0

CELLS 76 380
4	0	1	3	2
4	4	5	7	6
4	8	9	11	10
4	12	13	15	14
4	16	17	19	18
4	20	21	23	22
4	24	25	27	26
4	28	29	31	30
4	32	33	35	34
4	36	37	39	38
4	40	41	43	42
4	44	45	47	46
4	48	49	51	50
4	52	53	55	54
4	56	57	59	58
4	60	61	63	62
4	64	65	67	66
4	68	69	71	70
4	72	73	75	74
4	76	77	79	78
4	80	81	83	82
4	84	85	87	86
4	88	89	91	90
4	92	93	95	94
4	96	97	99	98
4	100	101	103	102
4	104	105	107	106
4	108	109	111	110
4	112	113	115	114
4	116	117	119	118
4	120	121	123	122
4	124	125	127	126
4	128	129	131	130
4	132	133	135	134
4	136	137	139	138
4	140	141	143	142
4	144	145	147	146
4	148	149	151	150
4	152	153	155	154
4	156	157	159	158
4	160	161	163	162
4	164	165	167	166
4	168	169	171	170
4	172	173	175	174
4	176	177	179	178
4	180	181	183	182
4	184	185	187	186
4	188	189	191	190
4	192	193	195	194
4	196	197	199	198
4	200	201	203	202
4	204	205	207	206
4	208	209	211	210
4	212	213	215	214
4	216	217	219	218
4	220	221	223	222
4	224	225	227	226
4	228	229	231	230
4	232	233	235	234
4	236	237	239	238
4	240	241	243	242
4	244	245	247	246
4	248	249	251	250
4	252	253	255	254
4	256	257	259	258
4	260	261	263	262
4	264	265	267	266
4	268	269	271	270
4	272	273	275	274
4	276	277	279	278
4	280	281	283	282
4	284	285	287	286
4	288	289	291	290
4	292	293	295	294
4	296	297	299	298
4	300	301	303	302

CELL_TYPES 76
 9 9 9 9 9 9 9 9 9 9 9 9 9 9 9 9 9 9 9 9 9 9 9 9 9 9 9 9 9 9 9 9 9 9 9 9 9 9 9 9 9 9 9 9 9 9 9 9 9 9 9 9 9 9 9 9 9 9 9 9 9 9 9 9 9 9 9 9 9 9 9 9 9 9 9 9
POINT_DATA 304
SCALARS solution double 1
LOOKUP_TABLE default
0 0 0 0.047165 0 0 0.047165 0.0620167 0 0.047165 0 0.0620167 0 0 0.0620167 0.047165 0 0 0.047165 0 0.047165 0 0.0620167 0 0 0.0620167 0 0.047165 0 0.047165 0 0 0.047165 0.0620167 0 0 0.0620167 0 0.047165 0 0.0620167 0.047165 0 0 0.047165 0 0 0 0.047165 0.0822835 0.0822835 0.0806758 0.0822835 0.0620167 0.0806758 0.0881463 0.0822835 0.0806758 0.0620167 0.0881463 0.0620167 0.0822835 0.0881463 0.0806758 0.0822835 0.047165 0.0806758 0.0822835 0.0806758 0.0822835 0.0881463 0.0620167 0.0620167 0.0881463 0.0822835 0.0806758 0.0822835 0.0806758 0.047165 0.0822835 0.0806758 0.0881463 0.0822835 0.0620167 0.0881463 0.0620167 0.0806758 0.0822835 0.0881463 0.0806758 0.0620167 0.0822835 0.0806758 0.0822835 0.0822835 0.047165 0.0806758 0.0918253 0.0918253 0.0915833 0.0918253 0.0881463 0.0915833 0.0936221 0.0918253 0.0915833 0.0881463 0.0936221 0.0881463 0.0918253 0.0936221 0.0915833 0.0918253 0.0806758 0.0915833 0.0918253 0.0915833 0.0918253 0.0936221 0.0881463 0.0881463 0.0936221 0.0918253 0.0915833 0.0918253 0.0915833 0.0806758 0.0918253 0.0915833 0.0936221 0.0918253 0.0881463 0.0936221 0.0881463 0.0915833 0.0918253 0.0936221 0.0915833 0.0881463 0.0918253 0.0915833 0.0918253 0.0918253 0.0806758 0.0915833 0.0944787 0.0944787 0.0944255 0.0944787 0.0936221 0.0944255 0.0949429 0.0944787 0.0944255 0.0936221 0.0949429 0.0936221 0.0944787 0.0949429 0.0944255 0.0944787 0.0915833 0.0944255 0.0944787 0.0944255 0.0944787 0.0949429 0.0936221 0.0936221 0.0949429 0.0944787 0.0944255 0.0944787 0.0944255 0.0915833 0.0944787 0.0944255 0.0949429 0.0944787 0.0936221 0.0949429 0.0936221 0.0944255 0.0944787 0.0949429 0.0944255 0.0936221 0.0944787 0.0944255 0.0944787 0.0944787 0.0915833 0.0944255 0.0951542 0.0951542 0.0951413 0.0951542 0.0949429 0.0951413 0.0952708 0.0951542 0.0951413 0.0949429 0.0952708 0.0949429 0.0951542 0.0952708 0.0951413 0.0951542 0.0944255 0.0951413 0.0951542 0.0951413 0.0951542 0.0952708 0.0949429 0.0949429 0.0952708 0.0951542 0.0951413 0.0951542 0.0951413 0.0944255 0.0951542 0.0951413 0.0952708 0.0951542 0.0949429 0.0952708 0.0949429 0.0951413 0.0951542 0.0952708 0.0951413 0.0949429 0.0951542 0.0951413 0.0951542 0.0951542 0.0944255 0.0951413 0.0953231 0.0953231 0.0953215 0.0953231 0.0952708 0.0953215 0.0953503 0.0953231 0.0953215 0.0952708 0.0953503 0.0953215 0.0953503 0.0953503 0.0953588 0.0952708 0.0953231 0.0953503 0.0953215 0.0953231 0.0951413 0.0953215 0.0953231 0.0953503 0.0953215 0.0953588 0.0953503 0.0953215 0.0953231 0.0953503 0.0952708 0.0952708 0.0953503 0.0953231 0.0953215 0.0953503 0.0953588 0.0953215 0.0953503 0.0953231 0.0953215 0.0951413 0.0953231 0.0953215 0.0953503 0.0953231 0.0952708 0.0953588 0.0953503 0.0953503 0.0953215 0.0953503 0.0952708 0.0953215 0.0953231 0.0953503 0.0953215 0.0952708 0.0953231 0.0953215 0.0953231 0.0953231 0.0951413 
