# vtk DataFile Version 3.0
#This file was generated by the deal.II library on 2022/11/25 at 3:27:00
ASCII
DATASET UNSTRUCTURED_GRID

POINTS 2048 double
1 0 0
0.994703 0.107819 0
0.9125 0 0
0.907805 0.0955667 0
0.994703 0.107819 0
0.978864 0.214599 0
0.907805 0.0955667 0
0.893766 0.190213 0
0.9125 0 0
0.907805 0.0955667 0
0.825 0 0
0.820907 0.0833146 0
0.907805 0.0955667 0
0.893766 0.190213 0
0.820907 0.0833146 0
0.808667 0.165827 0
0.978864 0.214599 0
0.952634 0.319313 0
0.893766 0.190213 0
0.870517 0.283028 0
0.952634 0.319313 0
0.916267 0.420952 0
0.870517 0.283028 0
0.838283 0.373116 0
0.893766 0.190213 0
0.870517 0.283028 0
0.808667 0.165827 0
0.788399 0.246742 0
0.870517 0.283028 0
0.838283 0.373116 0
0.788399 0.246742 0
0.760298 0.325281 0
0.825 0 0
0.820907 0.0833146 0
0.7375 0 0
0.734009 0.0710624 0
0.820907 0.0833146 0
0.808667 0.165827 0
0.734009 0.0710624 0
0.723569 0.14144 0
0.7375 0 0
0.734009 0.0710624 0
0.65 0 0
0.647111 0.0588103 0
0.734009 0.0710624 0
0.723569 0.14144 0
0.647111 0.0588103 0
0.638471 0.117054 0
0.808667 0.165827 0
0.788399 0.246742 0
0.723569 0.14144 0
0.706282 0.210456 0
0.788399 0.246742 0
0.760298 0.325281 0
0.706282 0.210456 0
0.682313 0.277445 0
0.723569 0.14144 0
0.706282 0.210456 0
0.638471 0.117054 0
0.624164 0.174171 0
0.706282 0.210456 0
0.682313 0.277445 0
0.624164 0.174171 0
0.604328 0.22961 0
0.916267 0.420952 0
0.870113 0.518536 0
0.838283 0.373116 0
0.797373 0.459612 0
0.870113 0.518536 0
0.814617 0.611127 0
0.797373 0.459612 0
0.748183 0.541681 0
0.838283 0.373116 0
0.797373 0.459612 0
0.760298 0.325281 0
0.724633 0.400687 0
0.797373 0.459612 0
0.748183 0.541681 0
0.724633 0.400687 0
0.681749 0.472235 0
0.814617 0.611127 0
0.750311 0.697833 0
0.748183 0.541681 0
0.691185 0.618533 0
0.750311 0.697833 0
0.677817 0.777817 0
0.691185 0.618533 0
0.626929 0.689429 0
0.748183 0.541681 0
0.691185 0.618533 0
0.681749 0.472235 0
0.632059 0.539234 0
0.691185 0.618533 0
0.626929 0.689429 0
0.632059 0.539234 0
0.576041 0.601041 0
0.760298 0.325281 0
0.724633 0.400687 0
0.682313 0.277445 0
0.651893 0.341763 0
0.724633 0.400687 0
0.681749 0.472235 0
0.651893 0.341763 0
0.615315 0.402788 0
0.682313 0.277445 0
0.651893 0.341763 0
0.604328 0.22961 0
0.579153 0.282838 0
0.651893 0.341763 0
0.615315 0.402788 0
0.579153 0.282838 0
0.548882 0.333342 0
0.681749 0.472235 0
0.632059 0.539234 0
0.615315 0.402788 0
0.572933 0.459935 0
0.632059 0.539234 0
0.576041 0.601041 0
0.572933 0.459935 0
0.525152 0.512652 0
0.615315 0.402788 0
0.572933 0.459935 0
0.548882 0.333342 0
0.513806 0.380636 0
0.572933 0.459935 0
0.525152 0.512652 0
0.513806 0.380636 0
0.474264 0.424264 0
0.65 0 0
0.647111 0.0588103 0
0.5625 0 0
0.560213 0.0465581 0
0.647111 0.0588103 0
0.638471 0.117054 0
0.560213 0.0465581 0
0.553373 0.0926679 0
0.5625 0 0
0.560213 0.0465581 0
0.475 0 0
0.473315 0.034306 0
0.560213 0.0465581 0
0.553373 0.0926679 0
0.473315 0.034306 0
0.468275 0.0682816 0
0.638471 0.117054 0
0.624164 0.174171 0
0.553373 0.0926679 0
0.542047 0.137885 0
0.624164 0.174171 0
0.604328 0.22961 0
0.542047 0.137885 0
0.526343 0.181775 0
0.553373 0.0926679 0
0.542047 0.137885 0
0.468275 0.0682816 0
0.459929 0.1016 0
0.542047 0.137885 0
0.526343 0.181775 0
0.459929 0.1016 0
0.448358 0.133939 0
0.475 0 0
0.473315 0.034306 0
0.3875 0 0
0.386417 0.0220539 0
0.473315 0.034306 0
0.468275 0.0682816 0
0.386417 0.0220539 0
0.383177 0.0438953 0
0.3875 0 0
0.386417 0.0220539 0
0.3 0 0
0.299518 0.00980171 0
0.386417 0.0220539 0
0.383177 0.0438953 0
0.299518 0.00980171 0
0.298079 0.019509 0
0.468275 0.0682816 0
0.459929 0.1016 0
0.383177 0.0438953 0
0.377812 0.0653141 0
0.459929 0.1016 0
0.448358 0.133939 0
0.377812 0.0653141 0
0.370373 0.0861038 0
0.383177 0.0438953 0
0.377812 0.0653141 0
0.298079 0.019509 0
0.295694 0.0290285 0
0.377812 0.0653141 0
0.370373 0.0861038 0
0.295694 0.0290285 0
0.292388 0.0382683 0
0.604328 0.22961 0
0.579153 0.282838 0
0.526343 0.181775 0
0.506413 0.223913 0
0.579153 0.282838 0
0.548882 0.333342 0
0.506413 0.223913 0
0.482448 0.263896 0
0.526343 0.181775 0
0.506413 0.223913 0
0.448358 0.133939 0
0.433672 0.164989 0
0.506413 0.223913 0
0.482448 0.263896 0
0.433672 0.164989 0
0.416014 0.19445 0
0.548882 0.333342 0
0.513806 0.380636 0
0.482448 0.263896 0
0.45468 0.301337 0
0.513806 0.380636 0
0.474264 0.424264 0
0.45468 0.301337 0
0.423376 0.335876 0
0.482448 0.263896 0
0.45468 0.301337 0
0.416014 0.19445 0
0.395554 0.222038 0
0.45468 0.301337 0
0.423376 0.335876 0
0.395554 0.222038 0
0.372487 0.247487 0
0.448358 0.133939 0
0.433672 0.164989 0
0.370373 0.0861038 0
0.360932 0.106064 0
0.433672 0.164989 0
0.416014 0.19445 0
0.360932 0.106064 0
0.349581 0.125003 0
0.370373 0.0861038 0
0.360932 0.106064 0
0.292388 0.0382683 0
0.288192 0.0471397 0
0.360932 0.106064 0
0.349581 0.125003 0
0.288192 0.0471397 0
0.283147 0.055557 0
0.416014 0.19445 0
0.395554 0.222038 0
0.349581 0.125003 0
0.336427 0.142738 0
0.395554 0.222038 0
0.372487 0.247487 0
0.336427 0.142738 0
0.321599 0.159099 0
0.349581 0.125003 0
0.336427 0.142738 0
0.283147 0.055557 0
0.277301 0.0634393 0
0.336427 0.142738 0
0.321599 0.159099 0
0.277301 0.0634393 0
0.270711 0.0707107 0
0.677817 0.777817 0
0.597833 0.850311 0
0.626929 0.689429 0
0.556033 0.753685 0
0.597833 0.850311 0
0.511127 0.914617 0
0.556033 0.753685 0
0.479181 0.810683 0
0.626929 0.689429 0
0.556033 0.753685 0
0.576041 0.601041 0
0.514234 0.657059 0
0.556033 0.753685 0
0.479181 0.810683 0
0.514234 0.657059 0
0.447235 0.706749 0
0.511127 0.914617 0
0.418536 0.970113 0
0.479181 0.810683 0
0.397112 0.859873 0
0.418536 0.970113 0
0.320952 1.01627 0
0.397112 0.859873 0
0.310616 0.900783 0
0.479181 0.810683 0
0.397112 0.859873 0
0.447235 0.706749 0
0.375687 0.749633 0
0.397112 0.859873 0
0.310616 0.900783 0
0.375687 0.749633 0
0.300281 0.785298 0
0.576041 0.601041 0
0.514234 0.657059 0
0.525152 0.512652 0
0.472435 0.560433 0
0.514234 0.657059 0
0.447235 0.706749 0
0.472435 0.560433 0
0.415288 0.602815 0
0.525152 0.512652 0
0.472435 0.560433 0
0.474264 0.424264 0
0.430636 0.463806 0
0.472435 0.560433 0
0.415288 0.602815 0
0.430636 0.463806 0
0.383342 0.498882 0
0.447235 0.706749 0
0.375687 0.749633 0
0.415288 0.602815 0
0.354263 0.639393 0
0.375687 0.749633 0
0.300281 0.785298 0
0.354263 0.639393 0
0.289945 0.669813 0
0.415288 0.602815 0
0.354263 0.639393 0
0.383342 0.498882 0
0.332838 0.529153 0
0.354263 0.639393 0
0.289945 0.669813 0
0.332838 0.529153 0
0.27961 0.554328 0
0.320952 1.01627 0
0.219313 1.05263 0
0.310616 0.900783 0
0.220528 0.933017 0
0.219313 1.05263 0
0.114599 1.07886 0
0.220528 0.933017 0
0.127713 0.956266 0
0.310616 0.900783 0
0.220528 0.933017 0
0.300281 0.785298 0
0.221742 0.813399 0
0.220528 0.933017 0
0.127713 0.956266 0
0.221742 0.813399 0
0.140827 0.833667 0
0.114599 1.07886 0
0.00781885 1.0947 0
0.127713 0.956266 0
0.0330667 0.970305 0
0.00781885 1.0947 0
-0.1 1.1 0
0.0330667 0.970305 0
-0.0625 0.975 0
0.127713 0.956266 0
0.0330667 0.970305 0
0.140827 0.833667 0
0.0583146 0.845907 0
0.0330667 0.970305 0
-0.0625 0.975 0
0.0583146 0.845907 0
-0.025 0.85 0
0.300281 0.785298 0
0.221742 0.813399 0
0.289945 0.669813 0
0.222956 0.693782 0
0.221742 0.813399 0
0.140827 0.833667 0
0.222956 0.693782 0
0.15394 0.711069 0
0.289945 0.669813 0
0.222956 0.693782 0
0.27961 0.554328 0
0.224171 0.574164 0
0.222956 0.693782 0
0.15394 0.711069 0
0.224171 0.574164 0
0.167054 0.588471 0
0.140827 0.833667 0
0.0583146 0.845907 0
0.15394 0.711069 0
0.0835624 0.721509 0
0.0583146 0.845907 0
-0.025 0.85 0
0.0835624 0.721509 0
0.0125 0.725 0
0.15394 0.711069 0
0.0835624 0.721509 0
0.167054 0.588471 0
0.10881 0.597111 0
0.0835624 0.721509 0
0.0125 0.725 0
0.10881 0.597111 0
0.05 0.6 0
0.474264 0.424264 0
0.430636 0.463806 0
0.423376 0.335876 0
0.388837 0.36718 0
0.430636 0.463806 0
0.383342 0.498882 0
0.388837 0.36718 0
0.351396 0.394948 0
0.423376 0.335876 0
0.388837 0.36718 0
0.372487 0.247487 0
0.347038 0.270554 0
0.388837 0.36718 0
0.351396 0.394948 0
0.347038 0.270554 0
0.31945 0.291014 0
0.383342 0.498882 0
0.332838 0.529153 0
0.351396 0.394948 0
0.311413 0.418913 0
0.332838 0.529153 0
0.27961 0.554328 0
0.311413 0.418913 0
0.269275 0.438843 0
0.351396 0.394948 0
0.311413 0.418913 0
0.31945 0.291014 0
0.289989 0.308672 0
0.311413 0.418913 0
0.269275 0.438843 0
0.289989 0.308672 0
0.258939 0.323358 0
0.372487 0.247487 0
0.347038 0.270554 0
0.321599 0.159099 0
0.305238 0.173927 0
0.347038 0.270554 0
0.31945 0.291014 0
0.305238 0.173927 0
0.287503 0.187081 0
0.321599 0.159099 0
0.305238 0.173927 0
0.270711 0.0707107 0
0.263439 0.077301 0
0.305238 0.173927 0
0.287503 0.187081 0
0.263439 0.077301 0
0.255557 0.083147 0
0.31945 0.291014 0
0.289989 0.308672 0
0.287503 0.187081 0
0.268564 0.198432 0
0.289989 0.308672 0
0.258939 0.323358 0
0.268564 0.198432 0
0.248604 0.207873 0
0.287503 0.187081 0
0.268564 0.198432 0
0.255557 0.083147 0
0.24714 0.0881921 0
0.268564 0.198432 0
0.248604 0.207873 0
0.24714 0.0881921 0
0.238268 0.092388 0
0.27961 0.554328 0
0.224171 0.574164 0
0.269275 0.438843 0
0.225385 0.454547 0
0.224171 0.574164 0
0.167054 0.588471 0
0.225385 0.454547 0
0.180168 0.465873 0
0.269275 0.438843 0
0.225385 0.454547 0
0.258939 0.323358 0
0.2266 0.334929 0
0.225385 0.454547 0
0.180168 0.465873 0
0.2266 0.334929 0
0.193282 0.343275 0
0.167054 0.588471 0
0.10881 0.597111 0
0.180168 0.465873 0
0.134058 0.472713 0
0.10881 0.597111 0
0.05 0.6 0
0.134058 0.472713 0
0.0875 0.475 0
0.180168 0.465873 0
0.134058 0.472713 0
0.193282 0.343275 0
0.159306 0.348315 0
0.134058 0.472713 0
0.0875 0.475 0
0.159306 0.348315 0
0.125 0.35 0
0.258939 0.323358 0
0.2266 0.334929 0
0.248604 0.207873 0
0.227814 0.215312 0
0.2266 0.334929 0
0.193282 0.343275 0
0.227814 0.215312 0
0.206395 0.220677 0
0.248604 0.207873 0
0.227814 0.215312 0
0.238268 0.092388 0
0.229028 0.095694 0
0.227814 0.215312 0
0.206395 0.220677 0
0.229028 0.095694 0
0.219509 0.0980785 0
0.193282 0.343275 0
0.159306 0.348315 0
0.206395 0.220677 0
0.184554 0.223917 0
0.159306 0.348315 0
0.125 0.35 0
0.184554 0.223917 0
0.1625 0.225 0
[...]
POINT_DATA 2048
SCALARS solution double 1
LOOKUP_TABLE default
1 1.00106 0.972272 0.973522 1.00106 1.00423 0.973522 0.977249 0.972272 0.973522 0.931784 0.933162 0.973522 0.977249 0.933162 0.937263 1.00423 1.00947 0.977249 0.983383 1.00947 1.01675 0.983383 0.991818 0.977249 0.983383 0.937263 0.943996 0.983383 0.991818 0.943996 0.953217 0.931784 0.933162 0.875685 0.877127 0.933162 0.937263 0.877127 0.881416 0.875685 0.877127 0.79965 0.801087 0.877127 0.881416 0.801087 0.805359 0.937263 0.943996 0.881416 0.888448 0.943996 0.953217 0.888448 0.898059 0.881416 0.888448 0.805359 0.812361 0.888448 0.898059 0.812361 0.821926 1.01675 1.02598 0.991818 1.00242 1.02598 1.03708 1.00242 1.01502 0.991818 1.00242 0.953217 0.96474 1.00242 1.01502 0.96474 0.978356 1.03708 1.04994 1.01502 1.02944 1.04994 1.06444 1.02944 1.04551 1.01502 1.02944 0.978356 0.993839 1.02944 1.04551 0.993839 1.01096 0.953217 0.96474 0.898059 0.910039 0.96474 0.978356 0.910039 0.92415 0.898059 0.910039 0.821926 0.83384 0.910039 0.92415 0.83384 0.847858 0.978356 0.993839 0.92415 0.940136 0.993839 1.01096 0.940136 0.957738 0.92415 0.940136 0.847858 0.863713 0.940136 0.957738 0.863713 0.881138 0.79965 0.801087 0.696631 0.697979 0.801087 0.805359 0.697979 0.70199 0.696631 0.697979 0.553949 0.555096 0.697979 0.70199 0.555096 0.558514 0.805359 0.812361 0.70199 0.708569 0.812361 0.821926 0.708569 0.717561 0.70199 0.708569 0.558514 0.564128 0.708569 0.717561 0.564128 0.571818 0.553949 0.555096 0.345186 0.345948 0.555096 0.558514 0.345948 0.348221 0.345186 0.345948 0 0 0.345948 0.348221 0 0 0.558514 0.564128 0.348221 0.351966 0.564128 0.571818 0.351966 0.357118 0.348221 0.351966 0 0 0.351966 0.357118 0 0 0.821926 0.83384 0.717561 0.728771 0.83384 0.847858 0.728771 0.741969 0.717561 0.728771 0.571818 0.581429 0.728771 0.741969 0.581429 0.592779 0.847858 0.863713 0.741969 0.756906 0.863713 0.881138 0.756906 0.773325 0.741969 0.756906 0.592779 0.605663 0.756906 0.773325 0.605663 0.619871 0.571818 0.581429 0.357118 0.363594 0.581429 0.592779 0.363594 0.371292 0.357118 0.363594 0 0 0.363594 0.371292 0 0 0.592779 0.605663 0.371292 0.380098 0.605663 0.619871 0.380098 0.389888 0.371292 0.380098 0 0 0.380098 0.389888 0 0 1.06444 1.08043 1.04551 1.06303 1.08043 1.09777 1.06303 1.08181 1.04551 1.06303 1.01096 1.02949 1.06303 1.08181 1.02949 1.0492 1.09777 1.11629 1.08181 1.10166 1.11629 1.13581 1.10166 1.12238 1.08181 1.10166 1.0492 1.06988 1.10166 1.12238 1.06988 1.09131 1.01096 1.02949 0.957738 0.9767 1.02949 1.0492 0.9767 0.996775 0.957738 0.9767 0.881138 0.899866 0.9767 0.996775 0.899866 0.91964 1.0492 1.06988 0.996775 1.01773 1.06988 1.09131 1.01773 1.03934 0.996775 1.01773 0.91964 0.940219 1.01773 1.03934 0.940219 0.961374 1.13581 1.15614 1.12238 1.14377 1.15614 1.17708 1.14377 1.16564 1.12238 1.14377 1.09131 1.1133 1.14377 1.16564 1.1133 1.13564 1.17708 1.19844 1.16564 1.1878 1.19844 1.22 1.1878 1.21003 1.16564 1.1878 1.13564 1.15814 1.1878 1.21003 1.15814 1.18061 1.09131 1.1133 1.03934 1.0614 1.1133 1.13564 1.0614 1.08371 1.03934 1.0614 0.961374 0.982893 1.0614 1.08371 0.982893 1.00457 1.13564 1.15814 1.08371 1.10607 1.15814 1.18061 1.10607 1.1283 1.08371 1.10607 1.00457 1.02623 1.10607 1.1283 1.02623 1.04769 0.881138 0.899866 0.773325 0.790971 0.899866 0.91964 0.790971 0.809594 0.773325 0.790971 0.619871 0.635186 0.790971 0.809594 0.635186 0.651395 0.91964 0.940219 0.809594 0.82896 0.940219 0.961374 0.82896 0.848843 0.809594 0.82896 0.651395 0.668289 0.82896 0.848843 0.668289 0.68567 0.619871 0.635186 0.389888 0.400532 0.635186 0.651395 0.400532 0.411895 0.389888 0.400532 0 0 0.400532 0.411895 0 0 0.651395 0.668289 0.411895 0.423846 0.668289 0.68567 0.423846 0.436252 0.411895 0.423846 0 0 0.423846 0.436252 0 0 0.961374 0.982893 0.848843 0.869037 0.982893 1.00457 0.869037 0.889346 0.848843 0.869037 0.68567 0.703351 0.869037 0.889346 0.703351 0.721153 1.00457 1.02623 0.889346 0.90959 1.02623 1.04769 0.90959 0.9296 0.889346 0.90959 0.721153 0.738912 0.90959 0.9296 0.738912 0.756472 0.68567 0.703351 0.436252 0.448981 0.703351 0.721153 0.448981 0.461907 0.436252 0.448981 0 0 0.448981 0.461907 0 0 0.721153 0.738912 0.461907 0.474906 0.738912 0.756472 0.474906 0.487859 0.461907 0.474906 0 0 0.474906 0.487859 0 0 1.22 1.24156 1.21003 1.23214 1.24156 1.26292 1.23214 1.25394 1.21003 1.23214 1.18061 1.20285 1.23214 1.25394 1.20285 1.22469 1.26292 1.28386 1.25394 1.27524 1.28386 1.30419 1.27524 1.29583 1.25394 1.27524 1.22469 1.24594 1.27524 1.29583 1.24594 1.26642 1.18061 1.20285 1.1283 1.15021 1.20285 1.22469 1.15021 1.17165 1.1283 1.15021 1.04769 1.06877 1.15021 1.17165 1.06877 1.08932 1.22469 1.24594 1.17165 1.19244 1.24594 1.26642 1.19244 1.21241 1.17165 1.19244 1.08932 1.10919 1.19244 1.21241 1.10919 1.12823 1.30419 1.32371 1.29583 1.31555 1.32371 1.34223 1.31555 1.33421 1.29583 1.31555 1.26642 1.28597 1.31555 1.33421 1.28597 1.30443 1.34223 1.35957 1.33421 1.35164 1.35957 1.37556 1.35164 1.36769 1.33421 1.35164 1.30443 1.32163 1.35164 1.36769 1.32163 1.33745 1.26642 1.28597 1.21241 1.23143 1.28597 1.30443 1.23143 1.24933 1.21241 1.23143 1.12823 1.1463 1.23143 1.24933 1.1463 1.16328 1.30443 1.32163 1.24933 1.26598 1.32163 1.33745 1.26598 1.28126 1.24933 1.26598 1.16328 1.17904 1.26598 1.28126 1.17904 1.19346 1.04769 1.06877 0.9296 0.949219 1.06877 1.08932 0.949219 0.968297 0.9296 0.949219 0.756472 0.773688 0.949219 0.968297 0.773688 0.790425 1.08932 1.10919 0.968297 0.986697 1.10919 1.12823 0.986697 1.00429 0.968297 0.986697 0.790425 0.806557 0.986697 1.00429 0.806557 0.82197 0.756472 0.773688 0.487859 0.500653 0.773688 0.790425 0.500653 0.513177 0.487859 0.500653 0 0 0.500653 0.513177 0 0 0.790425 0.806557 0.513177 0.525326 0.806557 0.82197 0.525326 0.537003 0.513177 0.525326 0 0 0.525326 0.537003 0 0 1.12823 1.1463 1.00429 1.02095 1.1463 1.16328 1.02095 1.03656 1.00429 1.02095 0.82197 0.836553 1.02095 1.03656 0.836553 0.850208 1.16328 1.17904 1.03656 1.05103 1.17904 1.19346 1.05103 1.06424 1.03656 1.05103 0.850208 0.862843 1.05103 1.06424 0.862843 0.874375 0.82197 0.836553 0.537003 0.548112 0.836553 0.850208 0.548112 0.558566 0.537003 0.548112 0 0 0.548112 0.558566 0 0 0.850208 0.862843 0.558566 0.568284 0.862843 0.874375 0.568284 0.577189 0.558566 0.568284 0 0 0.568284 0.577189 0 0 1.37556 1.39006 1.36769 1.38222 1.39006 1.40292 1.38222 1.39508 1.36769 1.38222 1.33745 1.35173 1.38222 1.39508 1.35173 1.36437 1.40292 1.41402 1.39508 1.40617 1.41402 1.42325 1.40617 1.41539 1.39508 1.40617 1.36437 1.37525 1.40617 1.41539 1.37525 1.38428 1.33745 1.35173 1.28126 1.29503 1.35173 1.36437 1.29503 1.3072 1.28126 1.29503 1.19346 1.20644 1.29503 1.3072 1.20644 1.2179 1.36437 1.37525 1.3072 1.31766 1.37525 1.38428 1.31766 1.32634 1.3072 1.31766 1.2179 1.22773 1.31766 1.32634 1.22773 1.23588 1.42325 1.43053 1.41539 1.42265 1.43053 1.43577 1.42265 1.42788 1.41539 1.42265 1.38428 1.39138 1.42265 1.42788 1.39138 1.3965 1.43577 1.43894 1.42788 1.43103 1.43894 1.44 1.43103 1.43209 1.42788 1.43103 1.3965 1.39959 1.43103 1.43209 1.39959 1.40063 1.38428 1.39138 1.32634 1.33317 1.39138 1.3965 1.33317 1.33808 1.32634 1.33317 1.23588 1.24228 1.33317 1.33808 1.24228 1.24689 1.3965 1.39959 1.33808 1.34104 1.39959 1.40063 1.34104 1.34203 1.33808 1.34104 1.24689 1.24966 1.34104 1.34203 1.24966 1.25059 1.19346 1.20644 1.06424 1.07612 1.20644 1.2179 1.07612 1.08659 1.06424 1.07612 0.874375 0.884729 1.07612 1.08659 0.884729 0.89384 1.2179 1.22773 1.08659 1.09556 1.22773 1.23588 1.09556 1.10299 1.08659 1.09556 0.89384 0.901648 1.09556 1.10299 0.901648 0.908105 0.874375 0.884729 0.577189 0.585214 0.884729 0.89384 0.585214 0.592297 0.577189 0.585214 0 0 0.585214 0.592297 0 0 0.89384 0.901648 0.592297 0.598384 0.901648 0.908105 0.598384 0.603428 0.592297 0.598384 0 0 0.598384 0.603428 0 0 1.23588 1.24228 1.10299 1.10882 1.24228 1.24689 1.10882 1.11301 1.10299 1.10882 0.908105 0.91317 1.10882 1.11301 0.91317 0.91681 1.24689 1.24966 1.11301 1.11553 1.24966 1.25059 1.11553 1.11638 1.11301 1.11553 0.91681 0.919003 1.11553 1.11638 0.919003 0.919736 0.908105 0.91317 0.603428 0.607392 0.91317 0.91681 0.607392 0.610244 0.603428 0.607392 0 0 0.607392 0.610244 0 0 0.91681 0.919003 0.610244 0.611965 0.919003 0.919736 0.611965 0.61254 0.610244 0.611965 0 0 0.611965 0.61254 0 0 1.44 1.43894 1.43209 1.43103 1.43894 1.43577 1.43103 1.42788 1.43209 1.43103 1.40063 1.39959 1.43103 1.42788 1.39959 1.3965 1.43577 1.43053 1.42788 1.42265 1.43053 1.42325 1.42265 1.41539 1.42788 1.42265 1.3965 1.39138 1.42265 1.41539 1.39138 1.38428 1.40063 1.39959 1.34203 1.34104 1.39959 1.3965 1.34104 1.33808 1.34203 1.34104 1.25059 1.24966 1.34104 1.33808 1.24966 1.24689 1.3965 1.39138 1.33808 1.33317 1.39138 1.38428 1.33317 1.32634 1.33808 1.33317 1.24689 1.24228 1.33317 1.32634 1.24228 1.23588 1.42325 1.41402 1.41539 1.40617 1.41402 1.40292 1.40617 1.39508 1.41539 1.40617 1.38428 1.37525 1.40617 1.39508 1.37525 1.36437 1.40292 1.39006 1.39508 1.38222 1.39006 1.37556 1.38222 1.36769 1.39508 1.38222 1.36437 1.35173 1.38222 1.36769 1.35173 1.33745 1.38428 1.37525 1.32634 1.31766 1.37525 1.36437 1.31766 1.3072 1.32634 1.31766 1.23588 1.22773 1.31766 1.3072 1.22773 1.2179 1.36437 1.35173 1.3072 1.29503 1.35173 1.33745 1.29503 1.28126 1.3072 1.29503 1.2179 1.20644 1.29503 1.28126 1.20644 1.19346 1.25059 1.24966 1.11638 1.11553 1.24966 1.24689 1.11553 1.11301 1.11638 1.11553 0.919736 0.919003 1.11553 1.11301 0.919003 0.91681 1.24689 1.24228 1.11301 1.10882 1.24228 1.23588 1.10882 1.10299 1.11301 1.10882 0.91681 0.91317 1.10882 1.10299 0.91317 0.908105 0.919736 0.919003 0.61254 0.611965 0.919003 0.91681 0.611965 0.610244 0.61254 0.611965 0 0 0.611965 0.610244 0 0 0.91681 0.91317 0.610244 0.607392 0.91317 0.908105 0.607392 0.603428 0.610244 0.607392 0 0 0.607392 0.603428 0 0 1.23588 1.22773 1.10299 1.09556 1.22773 1.2179 1.09556 1.08659 1.10299 1.09556 0.908105 0.901648 1.09556 1.08659 0.901648 0.89384 1.2179 1.20644 1.08659 1.07612 1.20644 1.19346 1.07612 1.06424 1.08659 1.07612 0.89384 0.88473 1.07612 1.06424 0.88473 0.874375 0.908105 0.901648 0.603428 0.598384 0.901648 0.89384 0.598384 0.592297 0.603428 0.598384 0 0 0.598384 0.592297 0 0 0.89384 0.88473 0.592297 0.585214 0.88473 0.874375 0.585214 0.577189 0.592297 0.585214 0 0 0.585214 0.577189 0 0 1.37556 1.35957 1.36769 1.35164 1.35957 1.34223 1.35164 1.33421 1.36769 1.35164 1.33745 1.32163 1.35164 1.33421 1.32163 1.30443 1.34223 1.32371 1.33421 1.31555 1.32371 1.30419 1.31555 1.29583 1.33421 1.31555 1.30443 1.28597 1.31555 1.29583 1.28597 1.26642 1.33745 1.32163 1.28126 1.26598 1.32163 1.30443 1.26598 1.24933 1.28126 1.26598 1.19346 1.17904 1.26598 1.24933 1.17904 1.16328 1.30443 1.28597 1.24933 1.23143 1.28597 1.26642 1.23143 1.21241 1.24933 1.23143 1.16328 1.1463 1.23143 1.21241 1.1463 1.12823 1.30419 1.28386 1.29583 1.27524 1.28386 1.26292 1.27524 1.25394 1.29583 1.27524 1.26642 1.24594 1.27524 1.25394 1.24594 1.22469 1.26292 1.24156 1.25394 1.23214 1.24156 1.22 1.23214 1.21003 1.25394 1.23214 1.22469 1.20285 1.23214 1.21003 1.20285 1.18061 1.26642 1.24594 1.21241 1.19244 1.24594 1.22469 1.19244 1.17165 1.21241 1.19244 1.12823 1.10919 1.19244 1.17165 1.10919 1.08932 1.22469 1.20285 1.17165 1.15021 1.20285 1.18061 1.15021 1.1283 1.17165 1.15021 1.08932 1.06877 1.15021 1.1283 1.06877 1.04769 1.19346 1.17904 1.06424 1.05103 1.17904 1.16328 1.05103 1.03656 1.06424 1.05103 0.874375 0.862843 1.05103 1.03656 0.862843 0.850207 1.16328 1.1463 1.03656 1.02095 1.1463 1.12823 1.02095 1.00429 1.03656 1.02095 0.850207 0.836553 1.02095 1.00429 0.836553 0.821969 0.874375 0.862843 0.577189 0.568284 0.862843 0.850207 0.568284 0.558566 0.577189 0.568284 0 0 0.568284 0.558566 0 0 0.850207 0.836553 0.558566 0.548112 0.836553 0.821969 0.548112 0.537003 0.558566 0.548112 0 0 0.548112 0.537003 0 0 1.12823 1.10919 1.00429 0.986697 1.10919 1.08932 0.986697 0.968297 1.00429 0.986697 0.821969 0.806557 0.986697 0.968297 0.806557 0.790425 1.08932 1.06877 0.968297 0.949219 1.06877 1.04769 0.949219 0.9296 0.968297 0.949219 0.790425 0.773688 0.949219 0.9296 0.773688 0.756472 0.821969 0.806557 0.537003 0.525326 0.806557 0.790425 0.525326 0.513177 0.537003 0.525326 0 0 0.525326 0.513177 0 0 0.790425 0.773688 0.513177 0.500653 0.773688 0.756472 0.500653 0.487859 0.513177 0.500653 0 0 0.500653 0.487859 0 0 1.22 1.19844 1.21003 1.1878 1.19844 1.17708 1.1878 1.16564 1.21003 1.1878 1.18061 1.15814 1.1878 1.16564 1.15814 1.13564 1.17708 1.15614 1.16564 1.14377 1.15614 1.13581 1.14377 1.12238 1.16564 1.14377 1.13564 1.1133 1.14377 1.12238 1.1133 1.09131 1.18061 1.15814 1.1283 1.10607 1.15814 1.13564 1.10607 1.08371 1.1283 1.10607 1.04769 1.02623 1.10607 1.08371 1.02623 1.00457 1.13564 1.1133 1.08371 1.0614 1.1133 1.09131 1.0614 1.03934 1.08371 1.0614 1.00457 0.982893 1.0614 1.03934 0.982893 0.961374 1.13581 1.11629 1.12238 1.10166 1.11629 1.09777 1.10166 1.08181 1.12238 1.10166 1.09131 1.06988 1.10166 1.08181 1.06988 1.0492 1.09777 1.08043 1.08181 1.06303 1.08043 1.06444 1.06303 1.04551 1.08181 1.06303 1.0492 1.02949 1.06303 1.04551 1.02949 1.01096 1.09131 1.06988 1.03934 1.01773 1.06988 1.0492 1.01773 0.996775 1.03934 1.01773 0.961374 0.940219 1.01773 0.996775 0.940219 0.91964 1.0492 1.02949 0.996775 0.9767 1.02949 1.01096 0.9767 0.957738 0.996775 0.9767 0.91964 0.899866 0.9767 0.957738 0.899866 0.881138 1.04769 1.02623 0.9296 0.90959 1.02623 1.00457 0.90959 0.889346 0.9296 0.90959 0.756472 0.738912 0.90959 0.889346 0.738912 0.721153 1.00457 0.982893 0.889346 0.869037 0.982893 0.961374 0.869037 0.848843 0.889346 0.869037 0.721153 0.703351 0.869037 0.848843 0.703351 0.68567 0.756472 0.738912 0.487859 0.474906 0.738912 0.721153 0.474906 0.461907 0.487859 0.474906 0 0 0.474906 0.461907 0 0 0.721153 0.703351 0.461907 0.448981 0.703351 0.68567 0.448981 0.436252 0.461907 0.448981 0 0 0.448981 0.436252 0 0 0.961374 0.940219 0.848843 0.82896 0.940219 0.91964 0.82896 0.809594 0.848843 0.82896 0.68567 0.668289 0.82896 0.809594 0.668289 0.651395 0.91964 0.899866 0.809594 0.790971 0.899866 0.881138 0.790971 0.773325 0.809594 0.790971 0.651395 0.635186 0.790971 0.773325 0.635186 0.619871 0.68567 0.668289 0.436252 0.423846 0.668289 0.651395 0.423846 0.411895 0.436252 0.423846 0 0 0.423846 0.411895 0 0 0.651395 0.635186 0.411895 0.400531 0.635186 0.619871 0.400531 0.389888 0.411895 0.400531 0 0 0.400531 0.389888 0 0 1.06444 1.04994 1.04551 1.02944 1.04994 1.03708 1.02944 1.01502 1.04551 1.02944 1.01096 0.993839 1.02944 1.01502 0.993839 0.978356 1.03708 1.02598 1.01502 1.00242 1.02598 1.01675 1.00242 0.991818 1.01502 1.00242 0.978356 0.96474 1.00242 0.991818 0.96474 0.953217 1.01096 0.993839 0.957738 0.940136 0.993839 0.978356 0.940136 0.92415 0.957738 0.940136 0.881138 0.863713 0.940136 0.92415 0.863713 0.847858 0.978356 0.96474 0.92415 0.910039 0.96474 0.953217 0.910039 0.898059 0.92415 0.910039 0.847858 0.83384 0.910039 0.898059 0.83384 0.821926 1.01675 1.00947 0.991818 0.983383 1.00947 1.00423 0.983383 0.977249 0.991818 0.983383 0.953217 0.943996 0.983383 0.977249 0.943996 0.937263 1.00423 1.00106 0.977249 0.973522 1.00106 1 0.973522 0.972272 0.977249 0.973522 0.937263 0.933162 0.973522 0.972272 0.933162 0.931784 0.953217 0.943996 0.898059 0.888448 0.943996 0.937263 0.888448 0.881416 0.898059 0.888448 0.821926 0.812361 0.888448 0.881416 0.812361 0.805359 0.937263 0.933162 0.881416 0.877127 0.933162 0.931784 0.877127 0.875685 0.881416 0.877127 0.805359 0.801087 0.877127 0.875685 0.801087 0.79965 0.881138 0.863713 0.773325 0.756906 0.863713 0.847858 0.756906 0.741969 0.773325 0.756906 0.619871 0.605663 0.756906 0.741969 0.605663 0.592779 0.847858 0.83384 0.741969 0.728771 0.83384 0.821926 0.728771 0.717561 0.741969 0.728771 0.592779 0.581429 0.728771 0.717561 0.581429 0.571818 0.619871 0.605663 0.389888 0.380098 0.605663 0.592779 0.380098 0.371292 0.389888 0.380098 0 0 0.380098 0.371292 0 0 0.592779 0.581429 0.371292 0.363594 0.581429 0.571818 0.363594 0.357118 0.371292 0.363594 0 0 0.363594 0.357118 0 0 0.821926 0.812361 0.717561 0.708569 0.812361 0.805359 0.708569 0.70199 0.717561 0.708569 0.571818 0.564128 0.708569 0.70199 0.564128 0.558514 0.805359 0.801087 0.70199 0.697979 0.801087 0.79965 0.697979 0.696631 0.70199 0.697979 0.558514 0.555096 0.697979 0.696631 0.555096 0.553949 0.571818 0.564128 0.357118 0.351966 0.564128 0.558514 0.351966 0.348221 0.357118 0.351966 0 0 0.351966 0.348221 0 0 0.558514 0.555096 0.348221 0.345948 0.555096 0.553949 0.345948 0.345186 0.348221 0.345948 0 0 0.345948 0.345186 0 0 
